
    -----------------------------------------------------------------------
          Psi4: An Open-Source Ab Initio Electronic Structure Package
                               Psi4 1.4a2.dev37 

                         Git: Rev {master} a6305a1 


    R. M. Parrish, L. A. Burns, D. G. A. Smith, A. C. Simmonett,
    A. E. DePrince III, E. G. Hohenstein, U. Bozkaya, A. Yu. Sokolov,
    R. Di Remigio, R. M. Richard, J. F. Gonthier, A. M. James,
    H. R. McAlexander, A. Kumar, M. Saitow, X. Wang, B. P. Pritchard,
    P. Verma, H. F. Schaefer III, K. Patkowski, R. A. King, E. F. Valeev,
    F. A. Evangelista, J. M. Turney, T. D. Crawford, and C. D. Sherrill,
    J. Chem. Theory Comput. 13(7) pp 3185--3197 (2017).
    (doi: 10.1021/acs.jctc.7b00174)


                         Additional Contributions by
    P. Kraus, H. Kruse, M. H. Lechner, M. C. Schieber, R. A. Shaw,
    A. Alenaizan, R. Galvelis, Z. L. Glick, S. Lehtola, and J. P. Misiewicz

    -----------------------------------------------------------------------


    Psi4 started on: Sunday, 23 June 2019 01:59AM

    Process ID: 10802
    Host:       e40
    PSIDATADIR: /home/kruse/miniconda3/share/psi4
    Memory:     500.0 MiB
    Threads:    1
    
  ==> Input File <==

--------------------------------------------------------------------------
with open('5gly.xyz') as fp:
    qmol = qcdb.Molecule.from_string(fp.read())
mol = geometry(qmol.create_psi4_string_from_molecule())

set {
basis def2-TZVP
ints_tolerance 2.5e-11
scf_type mem_df 
}
memory 60 GiB
#energy('scf')
set scf_type disk_df # can also do in-core despite name
energy('scf')
--------------------------------------------------------------------------

  Memory set to  60.000 GiB by Python driver.

*** tstart() called on e40
*** at Sun Jun 23 01:59:09 2019

   => Loading Basis Set <=

    Name: DEF2-TZVP
    Role: ORBITAL
    Keyword: BASIS
    atoms 1, 9, 16, 23, 30                    entry N          line   156 file /home/kruse/miniconda3/share/psi4/basis/def2-tzvp.gbs 
    atoms 2-3, 10-11, 17-18, 24-25, 31-32     entry C          line   123 file /home/kruse/miniconda3/share/psi4/basis/def2-tzvp.gbs 
    atoms 4, 12, 19, 26, 33, 37               entry O          line   189 file /home/kruse/miniconda3/share/psi4/basis/def2-tzvp.gbs 
    atoms 5-8, 13-15, 20-22, 27-29, 34-36, 38 entry H          line    15 file /home/kruse/miniconda3/share/psi4/basis/def2-tzvp.gbs 


         ---------------------------------------------------------
                                   SCF
               by Justin Turney, Rob Parrish, Andy Simmonett
                          and Daniel G. A. Smith
                              RHF Reference
                        1 Threads,  61440 MiB Core
         ---------------------------------------------------------

  ==> Geometry <==

    Molecular point group: c1
    Full point group: C1

    Geometry (in Angstrom), charge = 0, multiplicity = 1:

       Center              X                  Y                   Z               Mass       
    ------------   -----------------  -----------------  -----------------  -----------------
         N           -7.358511107083    -0.700986296785    -5.213070939237    14.003074004430
         C           -6.212085899006     0.142913745409    -4.977130199068    12.000000000000
         C           -5.745709697201    -0.019329729807    -3.539662764407    12.000000000000
         O           -6.529937061029    -0.169746331680    -2.624032993052    15.994914619570
         H           -5.408951003692    -0.121570641267    -5.671137602584     1.007825032230
         H           -6.394518060046     1.221716329460    -5.116624076546     1.007825032230
         H           -7.996865394964    -0.626617998538    -4.432883609397     1.007825032230
         H           -7.849674865238    -0.411354472795    -6.045377967618     1.007825032230
         N           -4.415295936393     0.073495146145    -3.351494464271    14.003074004430
         C           -3.832358997902    -0.024088192802    -2.047537440997    12.000000000000
         C           -2.319071208773     0.059225294601    -2.168697502231    12.000000000000
         O           -1.752892997326     0.093419719611    -3.243934237213    15.994914619570
         H           -4.199826878715     0.770731691903    -1.390291158486     1.007825032230
         H           -4.103529694541    -0.969469416680    -1.564948982486     1.007825032230
         H           -3.772971321326     0.117515148525    -4.126987483496     1.007825032230
         N           -1.667662561759     0.077662242102    -0.993798529213    14.003074004430
         C           -0.238757754787     0.149761501070    -0.921985500377    12.000000000000
         C            0.181248873805     0.214008942964     0.538392244876    12.000000000000
         O           -0.625123985943     0.306143085559     1.442491748531    15.994914619570
         H            0.225451192144    -0.715068502220    -1.407183187053     1.007825032230
         H            0.137529651328     1.035514161831    -1.445128774578     1.007825032230
         H           -2.164770772485     0.096247771787    -0.115443832911     1.007825032230
         N            1.509156999333     0.171474160373     0.737078772365    14.003074004430
         C            2.079480100090     0.224950841564     2.050388481134    12.000000000000
         C            3.578096083868    -0.006167691143     1.945335565398    12.000000000000
         O            4.133442626756    -0.200656456430     0.882758537758    15.994914619570
         H            1.887518418199     1.192243404812     2.527010486709     1.007825032230
         H            1.633901393922    -0.533594905424     2.701779629864     1.007825032230
         H            2.155135466316     0.047255267811    -0.028426806127     1.007825032230
         N            4.235299381733     0.021431826367     3.118788496532    14.003074004430
         C            5.649796483520    -0.192673800171     3.179972412613    12.000000000000
         C            6.124170149177    -0.071713863267     4.616356650029    12.000000000000
         O            5.400687640986     0.188491976316     5.529493399175    15.994914619570
         H            5.913547412275    -1.182800322583     2.789402682512     1.007825032230
         H            6.184278504156     0.534876956519     2.557699773505     1.007825032230
         H            3.757952615639     0.202009352386     3.989236111565     1.007825032230
         O            7.426919057457    -0.273816786816     4.805446220657    15.994914619570
         H            7.886128610148    -0.485258088741     3.985692875248     1.007825032230

  Running in c1 symmetry.

  Rotational constants: A =      0.06113  B =      0.00184  C =      0.00180 [cm^-1]
  Rotational constants: A =   1832.61218  B =     55.20058  C =     53.84005 [MHz]
  Nuclear repulsion = 1547.155190987709148

  Charge       = 0
  Multiplicity = 1
  Electrons    = 160
  Nalpha       = 80
  Nbeta        = 80

  ==> Algorithm <==

  SCF Algorithm Type is DISK_DF.
  DIIS enabled.
  MOM disabled.
  Fractional occupation disabled.
  Guess Type is SAD.
  Energy threshold   = 1.00e-06
  Density threshold  = 1.00e-06
  Integral threshold = 2.50e-11

  ==> Primary Basis <==

  Basis Set: DEF2-TZVP
    Blend: DEF2-TZVP
    Number of shells: 299
    Number of basis function: 753
    Number of Cartesian functions: 858
    Spherical Harmonics?: true
    Max angular momentum: 3

   => Loading Basis Set <=

    Name: (DEF2-TZVP AUX)
    Role: JKFIT
    Keyword: DF_BASIS_SCF
    atoms 1, 9, 16, 23, 30                    entry N          line   263 file /home/kruse/miniconda3/share/psi4/basis/def2-tzvp-jkfit.gbs 
    atoms 2-3, 10-11, 17-18, 24-25, 31-32     entry C          line   203 file /home/kruse/miniconda3/share/psi4/basis/def2-tzvp-jkfit.gbs 
    atoms 4, 12, 19, 26, 33, 37               entry O          line   323 file /home/kruse/miniconda3/share/psi4/basis/def2-tzvp-jkfit.gbs 
    atoms 5-8, 13-15, 20-22, 27-29, 34-36, 38 entry H          line    23 file /home/kruse/miniconda3/share/psi4/basis/def2-tzvp-jkfit.gbs 

  ==> Pre-Iterations <==

   -------------------------------------------------------
    Irrep   Nso     Nmo     Nalpha   Nbeta   Ndocc  Nsocc
   -------------------------------------------------------
     A        753     753       0       0       0       0
   -------------------------------------------------------
    Total     753     753      80      80      80       0
   -------------------------------------------------------

  ==> Integral Setup <==

  ==> DiskDFJK: Density-Fitted J/K Matrices <==

    J tasked:                  Yes
    K tasked:                  Yes
    wK tasked:                  No
    OpenMP threads:              1
    Integrals threads:           1
    Memory [MiB]:            46080
    Algorithm:                Core
    Integral Cache:           NONE
    Schwarz Cutoff:          3E-11
    Fitting Condition:       1E-10

   => Auxiliary Basis Set <=

  Basis Set: (DEF2-TZVP AUX)
    Blend: DEF2-TZVP-JKFIT
    Number of shells: 627
    Number of basis function: 1903
    Number of Cartesian functions: 2253
    Spherical Harmonics?: true
    Max angular momentum: 4

  Minimum eigenvalue in the overlap matrix is 1.3699981408E-04.
  Using Symmetric Orthogonalization.

  SCF Guess: Superposition of Atomic Densities via on-the-fly atomic UHF.

  ==> Iterations <==

                           Total Energy        Delta E     RMS |[F,P]|

   @DF-RHF iter SAD: -1109.23473880214351   -1.10923e+03   0.00000e+00 
   @DF-RHF iter   1: -1109.87039309493730   -6.35654e-01   1.59687e-03 DIIS
   @DF-RHF iter   2: -1110.33845858403720   -4.68065e-01   1.00095e-03 DIIS
   @DF-RHF iter   3: -1110.52766072218560   -1.89202e-01   1.70805e-04 DIIS
   @DF-RHF iter   4: -1110.53834438683293   -1.06837e-02   6.89710e-05 DIIS
   @DF-RHF iter   5: -1110.54002818544836   -1.68380e-03   1.64734e-05 DIIS
   @DF-RHF iter   6: -1110.54022373049929   -1.95545e-04   7.50831e-06 DIIS
   @DF-RHF iter   7: -1110.54026304224226   -3.93117e-05   2.91367e-06 DIIS
   @DF-RHF iter   8: -1110.54026968504513   -6.64280e-06   1.08599e-06 DIIS
   @DF-RHF iter   9: -1110.54027046758983   -7.82545e-07   3.88790e-07 DIIS
  Energy and wave function converged.


  ==> Post-Iterations <==

    Orbital Energies [Eh]
    ---------------------

    Doubly Occupied:                                                      

       1A    -20.642311     2A    -20.573480     3A    -20.554245  
       4A    -20.541946     5A    -20.532502     6A    -20.511920  
       7A    -15.617226     8A    -15.603476     9A    -15.593711  
      10A    -15.579881    11A    -15.534807    12A    -11.415443  
      13A    -11.382662    14A    -11.370600    15A    -11.360606  
      16A    -11.340577    17A    -11.320214    18A    -11.302263  
      19A    -11.292334    20A    -11.279864    21A    -11.260446  
      22A     -1.500637    23A     -1.428284    24A     -1.414625  
      25A     -1.403627    26A     -1.401983    27A     -1.383305  
      28A     -1.276879    29A     -1.263387    30A     -1.253414  
      31A     -1.237466    32A     -1.182204    33A     -1.068439  
      34A     -1.039828    35A     -1.005390    36A     -0.965490  
      37A     -0.915675    38A     -0.872411    39A     -0.837939  
      40A     -0.822488    41A     -0.810375    42A     -0.794461  
      43A     -0.790547    44A     -0.747104    45A     -0.715928  
      46A     -0.711031    47A     -0.709970    48A     -0.697204  
      49A     -0.688266    50A     -0.683416    51A     -0.679779  
      52A     -0.670576    53A     -0.664630    54A     -0.651928  
      55A     -0.651143    56A     -0.636027    57A     -0.632080  
      58A     -0.623240    59A     -0.619785    60A     -0.606473  
      61A     -0.603964    62A     -0.591068    63A     -0.577983  
      64A     -0.573854    65A     -0.562067    66A     -0.553050  
      67A     -0.547533    68A     -0.529366    69A     -0.512736  
      70A     -0.509268    71A     -0.486610    72A     -0.467465  
      73A     -0.455074    74A     -0.444554    75A     -0.440325  
      76A     -0.424984    77A     -0.423864    78A     -0.409416  
      79A     -0.395768    80A     -0.385569  

    Virtual:                                                              

      81A      0.095185    82A      0.119530    83A      0.131851  
      84A      0.138188    85A      0.138384    86A      0.145904  
      87A      0.151431    88A      0.159551    89A      0.161800  
      90A      0.163845    91A      0.175394    92A      0.180464  
      93A      0.193745    94A      0.195362    95A      0.198674  
      96A      0.204377    97A      0.212966    98A      0.222171  
      99A      0.226716   100A      0.229947   101A      0.235946  
     102A      0.243970   103A      0.251614   104A      0.255678  
     105A      0.257820   106A      0.275864   107A      0.280258  
     108A      0.290258   109A      0.291241   110A      0.298905  
     111A      0.314626   112A      0.319072   113A      0.323693  
     114A      0.335941   115A      0.337130   116A      0.343085  
     117A      0.346455   118A      0.351950   119A      0.352727  
     120A      0.355882   121A      0.367244   122A      0.376831  
     123A      0.381537   124A      0.393171   125A      0.398866  
     126A      0.402806   127A      0.416557   128A      0.427307  
     129A      0.430620   130A      0.435229   131A      0.439004  
     132A      0.441953   133A      0.464441   134A      0.466554  
     135A      0.475362   136A      0.479809   137A      0.488566  
     138A      0.493612   139A      0.494559   140A      0.505741  
     141A      0.513248   142A      0.520215   143A      0.528231  
     144A      0.528993   145A      0.535297   146A      0.540291  
     147A      0.546026   148A      0.548345   149A      0.553989  
     150A      0.558549   151A      0.561479   152A      0.566320  
     153A      0.567547   154A      0.571174   155A      0.575071  
     156A      0.580963   157A      0.582931   158A      0.585981  
     159A      0.589330   160A      0.600467   161A      0.601665  
     162A      0.612737   163A      0.618171   164A      0.619343  
     165A      0.622448   166A      0.625763   167A      0.635653  
     168A      0.638688   169A      0.643940   170A      0.648798  
     171A      0.651017   172A      0.663758   173A      0.675485  
     174A      0.679491   175A      0.682629   176A      0.692173  
     177A      0.697052   178A      0.701297   179A      0.705395  
     180A      0.707410   181A      0.711603   182A      0.723693  
     183A      0.724836   184A      0.732775   185A      0.733652  
     186A      0.736252   187A      0.747690   188A      0.751384  
     189A      0.759527   190A      0.764714   191A      0.767202  
     192A      0.770118   193A      0.777753   194A      0.779705  
     195A      0.791013   196A      0.794829   197A      0.801019  
     198A      0.804039   199A      0.815133   200A      0.817522  
     201A      0.818966   202A      0.829880   203A      0.833459  
     204A      0.837763   205A      0.850349   206A      0.856748  
     207A      0.860617   208A      0.874595   209A      0.886260  
     210A      0.887660   211A      0.897955   212A      0.908703  
     213A      0.925179   214A      0.928164   215A      0.933604  
     216A      0.939472   217A      0.949928   218A      0.954993  
     219A      0.959594   220A      0.963482   221A      0.970957  
     222A      0.980239   223A      0.991523   224A      1.002521  
     225A      1.002944   226A      1.007461   227A      1.012542  
     228A      1.032358   229A      1.039285   230A      1.049311  
     231A      1.050060   232A      1.087357   233A      1.110469  
     234A      1.120209   235A      1.128140   236A      1.133602  
     237A      1.140406   238A      1.155146   239A      1.161965  
     240A      1.165505   241A      1.184455   242A      1.211019  
     243A      1.216823   244A      1.226919   245A      1.235176  
     246A      1.240211   247A      1.247308   248A      1.258307  
     249A      1.263123   250A      1.269253   251A      1.279897  
     252A      1.296887   253A      1.306934   254A      1.323876  
     255A      1.329985   256A      1.345504   257A      1.361009  
     258A      1.370522   259A      1.377248   260A      1.412661  
     261A      1.424580   262A      1.434919   263A      1.465330  
     264A      1.475626   265A      1.486645   266A      1.489042  
     267A      1.500443   268A      1.504203   269A      1.510860  
     270A      1.532491   271A      1.534650   272A      1.543948  
     273A      1.546476   274A      1.555241   275A      1.567182  
     276A      1.581953   277A      1.588058   278A      1.597204  
     279A      1.605179   280A      1.614329   281A      1.624024  
     282A      1.627116   283A      1.630242   284A      1.632848  
     285A      1.642552   286A      1.656072   287A      1.661084  
     288A      1.664886   289A      1.667739   290A      1.674448  
     291A      1.682571   292A      1.691512   293A      1.698340  
     294A      1.726245   295A      1.731029   296A      1.734612  
     297A      1.747561   298A      1.752088   299A      1.764734  
     300A      1.776156   301A      1.779969   302A      1.792250  
     303A      1.795044   304A      1.806022   305A      1.816626  
     306A      1.826066   307A      1.835423   308A      1.837804  
     309A      1.845543   310A      1.850810   311A      1.857889  
     312A      1.862263   313A      1.875100   314A      1.882543  
     315A      1.888045   316A      1.900581   317A      1.927794  
     318A      1.930847   319A      1.944895   320A      1.954374  
     321A      1.957037   322A      1.969781   323A      1.975655  
     324A      1.984216   325A      1.993279   326A      1.997844  
     327A      2.007187   328A      2.022425   329A      2.027669  
     330A      2.032470   331A      2.049480   332A      2.057575  
     333A      2.058773   334A      2.071600   335A      2.078208  
     336A      2.081119   337A      2.085380   338A      2.093216  
     339A      2.110978   340A      2.116088   341A      2.132923  
     342A      2.138022   343A      2.147369   344A      2.157825  
     345A      2.160741   346A      2.177510   347A      2.191904  
     348A      2.196625   349A      2.211161   350A      2.227763  
     351A      2.246998   352A      2.249274   353A      2.264141  
     354A      2.270827   355A      2.283162   356A      2.295389  
     357A      2.309246   358A      2.311129   359A      2.314180  
     360A      2.331707   361A      2.334181   362A      2.338714  
     363A      2.355959   364A      2.361227   365A      2.372746  
     366A      2.380278   367A      2.388766   368A      2.390436  
     369A      2.404725   370A      2.408794   371A      2.412421  
     372A      2.426653   373A      2.439130   374A      2.455329  
     375A      2.462571   376A      2.481012   377A      2.497271  
     378A      2.503531   379A      2.508091   380A      2.512038  
     381A      2.516942   382A      2.525701   383A      2.534062  
     384A      2.539787   385A      2.560188   386A      2.563174  
     387A      2.572164   388A      2.589425   389A      2.598044  
     390A      2.620321   391A      2.627610   392A      2.638529  
     393A      2.639987   394A      2.660888   395A      2.670178  
     396A      2.680570   397A      2.683620   398A      2.694699  
     399A      2.702654   400A      2.712793   401A      2.723808  
     402A      2.738723   403A      2.744984   404A      2.765395  
     405A      2.768243   406A      2.775813   407A      2.788998  
     408A      2.800601   409A      2.802385   410A      2.817974  
     411A      2.824828   412A      2.836267   413A      2.842288  
     414A      2.848629   415A      2.857445   416A      2.874334  
     417A      2.883797   418A      2.895064   419A      2.895127  
     420A      2.906038   421A      2.911922   422A      2.916110  
     423A      2.925692   424A      2.946714   425A      2.948412  
     426A      2.959618   427A      2.961134   428A      2.974058  
     429A      2.980026   430A      2.986848   431A      2.988829  
     432A      2.998293   433A      3.012425   434A      3.052123  
     435A      3.062364   436A      3.077458   437A      3.081210  
     438A      3.088530   439A      3.109403   440A      3.121936  
     441A      3.132143   442A      3.140692   443A      3.156337  
     444A      3.161274   445A      3.181430   446A      3.183958  
     447A      3.193673   448A      3.209187   449A      3.212683  
     450A      3.221126   451A      3.229634   452A      3.236122  
     453A      3.239590   454A      3.251836   455A      3.254226  
     456A      3.268879   457A      3.282728   458A      3.289349  
     459A      3.303114   460A      3.305167   461A      3.312487  
     462A      3.317289   463A      3.327258   464A      3.333348  
     465A      3.336429   466A      3.342189   467A      3.348364  
     468A      3.361628   469A      3.373629   470A      3.381839  
     471A      3.383435   472A      3.394709   473A      3.398941  
     474A      3.410941   475A      3.417238   476A      3.419263  
     477A      3.426676   478A      3.437418   479A      3.445848  
     480A      3.451331   481A      3.453641   482A      3.470594  
     483A      3.474913   484A      3.490783   485A      3.500766  
     486A      3.508931   487A      3.516845   488A      3.521908  
     489A      3.528764   490A      3.533414   491A      3.542229  
     492A      3.545955   493A      3.555946   494A      3.558306  
     495A      3.566484   496A      3.583539   497A      3.585228  
     498A      3.594760   499A      3.606723   500A      3.607774  
     501A      3.618018   502A      3.623845   503A      3.629352  
     504A      3.640880   505A      3.648534   506A      3.651736  
     507A      3.654392   508A      3.674862   509A      3.680140  
     510A      3.682253   511A      3.687268   512A      3.698070  
     513A      3.704148   514A      3.706785   515A      3.719488  
     516A      3.721201   517A      3.728688   518A      3.749654  
     519A      3.760801   520A      3.791075   521A      3.795135  
     522A      3.798521   523A      3.801965   524A      3.812044  
     525A      3.823030   526A      3.825110   527A      3.831066  
     528A      3.845573   529A      3.852579   530A      3.856020  
     531A      3.858896   532A      3.869578   533A      3.877123  
     534A      3.883787   535A      3.911983   536A      3.919167  
     537A      3.921649   538A      3.973374   539A      4.020938  
     540A      4.052455   541A      4.066124   542A      4.078687  
     543A      4.092606   544A      4.110085   545A      4.121870  
     546A      4.130708   547A      4.136472   548A      4.139179  
     549A      4.145782   550A      4.159426   551A      4.167068  
     552A      4.170248   553A      4.180332   554A      4.184583  
     555A      4.198316   556A      4.204169   557A      4.215880  
     558A      4.231304   559A      4.237953   560A      4.248057  
     561A      4.273764   562A      4.292554   563A      4.299106  
     564A      4.316109   565A      4.336487   566A      4.367937  
     567A      4.392442   568A      4.409663   569A      4.423199  
     570A      4.452998   571A      4.476611   572A      4.488138  
     573A      4.495422   574A      4.516331   575A      4.526380  
     576A      4.545330   577A      4.566923   578A      4.575121  
     579A      4.606022   580A      4.620351   581A      4.638263  
     582A      4.659215   583A      4.697770   584A      4.706811  
     585A      4.738295   586A      4.746823   587A      4.765891  
     588A      4.777727   589A      4.798574   590A      4.814602  
     591A      4.826669   592A      4.859731   593A      4.928391  
     594A      4.929986   595A      4.944395   596A      4.945193  
     597A      4.972321   598A      5.000412   599A      5.028338  
     600A      5.038443   601A      5.043594   602A      5.051999  
     603A      5.094645   604A      5.112182   605A      5.136055  
     606A      5.139547   607A      5.148118   608A      5.172083  
     609A      5.176960   610A      5.179417   611A      5.194191  
     612A      5.229003   613A      5.250067   614A      5.260515  
     615A      5.264895   616A      5.280454   617A      5.323333  
     618A      5.364522   619A      5.390052   620A      5.410795  
     621A      5.422551   622A      5.437059   623A      5.454456  
     624A      5.458951   625A      5.491333   626A      5.505385  
     627A      5.520183   628A      5.525081   629A      5.532821  
     630A      5.544948   631A      5.549441   632A      5.576466  
     633A      5.577571   634A      5.588364   635A      5.614495  
     636A      5.626564   637A      5.631736   638A      5.636661  
     639A      5.641781   640A      5.645801   641A      5.660996  
     642A      5.669381   643A      5.688243   644A      5.691061  
     645A      5.700329   646A      5.710547   647A      5.713947  
     648A      5.718103   649A      5.723562   650A      5.735530  
     651A      5.749955   652A      5.754586   653A      5.764900  
     654A      5.777956   655A      5.786450   656A      5.869431  
     657A      5.895026   658A      5.906705   659A      5.922786  
     660A      5.953234   661A      5.963243   662A      5.971728  
     663A      5.997045   664A      6.010622   665A      6.051569  
     666A      6.061861   667A      6.096047   668A      6.103531  
     669A      6.110321   670A      6.119493   671A      6.126469  
     672A      6.142938   673A      6.156138   674A      6.178199  
     675A      6.188753   676A      6.238179   677A      6.238462  
     678A      6.265284   679A      6.280321   680A      6.288999  
     681A      6.345854   682A      6.398283   683A      6.423166  
     684A      6.444054   685A      6.450148   686A      6.467661  
     687A      6.606375   688A      6.623722   689A      6.639404  
     690A      6.651924   691A      6.657955   692A      6.718680  
     693A      6.829026   694A      6.863486   695A      6.877840  
     696A      6.884840   697A      6.893369   698A      6.904401  
     699A      6.910487   700A      6.917188   701A      6.918490  
     702A      6.926819   703A      6.959727   704A      7.023014  
     705A      7.086466   706A      7.098808   707A      7.107555  
     708A      7.115909   709A      7.199319   710A      7.232706  
     711A      7.249429   712A      7.260838   713A      7.262145  
     714A      7.263761   715A      7.279032   716A      7.304712  
     717A      7.322466   718A      7.335587   719A      7.345518  
     720A      7.367620   721A      7.436025   722A      7.604140  
     723A      7.605725   724A      7.612871   725A      7.617913  
     726A      7.631829   727A      7.638948   728A      7.649593  
     729A      7.659536   730A      7.669036   731A      7.677986  
     732A      7.784801   733A     23.554107   734A     23.608319  
     735A     23.644065   736A     23.663112   737A     23.685154  
     738A     24.392217   739A     24.517530   740A     24.531969  
     741A     24.541192   742A     24.548844   743A     33.257310  
     744A     33.718548   745A     33.794420   746A     33.904916  
     747A     34.009427   748A     45.376782   749A     45.429920  
     750A     45.512590   751A     45.523103   752A     45.532712  
     753A     45.543212  

    Final Occupation by Irrep:
              A 
    DOCC [    80 ]

  @DF-RHF Final Energy: -1110.54027046758983

   => Energetics <=

    Nuclear Repulsion Energy =           1547.1551909877091475
    One-Electron Energy =               -4594.2653679604791250
    Two-Electron Energy =                1936.5699065051803700
    Total Energy =                      -1110.5402704675898349

Computation Completed


Properties will be evaluated at   0.000000,   0.000000,   0.000000 [a0]

Properties computed using the SCF density matrix

  Nuclear Dipole Moment: [e a0]
     X:   -11.2914      Y:     0.1624      Z:   -11.9444

  Electronic Dipole Moment: [e a0]
     X:    13.7924      Y:     0.1999      Z:    11.7766

  Dipole Moment: [e a0]
     X:     2.5011      Y:     0.3623      Z:    -0.1678     Total:     2.5327

  Dipole Moment: [D]
     X:     6.3571      Y:     0.9209      Z:    -0.4266     Total:     6.4376


*** tstop() called on e40 at Sun Jun 23 02:03:57 2019
Module time:
	user time   =     284.76 seconds =       4.75 minutes
	system time =       3.79 seconds =       0.06 minutes
	total time  =        288 seconds =       4.80 minutes
Total time:
	user time   =     284.76 seconds =       4.75 minutes
	system time =       3.79 seconds =       0.06 minutes
	total time  =        288 seconds =       4.80 minutes

    Psi4 stopped on: Sunday, 23 June 2019 02:03AM
    Psi4 wall time for execution: 0:04:48.38

*** Psi4 exiting successfully. Buy a developer a beer!
