 --   Using ORCA version: /home/kruse/Progs/ORCA/orca_4_1_1_linux_x86-64_shared_openmpi313/ * --
 -- * Using OpenMPI version: /home/kruse/Progs/openmpi313//bin/mpirun * --

                                 *****************
                                 * O   R   C   A *
                                 *****************

           --- An Ab Initio, DFT and Semiempirical electronic structure package ---

                  #######################################################
                  #                        -***-                        #
                  #          Department of theory and spectroscopy      #
                  #               Directorship: Frank Neese             #
                  #        Max Planck Institute fuer Kohlenforschung    #
                  #                Kaiser Wilhelm Platz 1               #
                  #                 D-45470 Muelheim/Ruhr               #
                  #                      Germany                        #
                  #                                                     #
                  #                  All rights reserved                #
                  #                        -***-                        #
                  #######################################################


                         Program Version 4.1.1  - RELEASE  -


 With contributions from (in alphabetic order):
   Daniel Aravena         : Magnetic Properties
   Michael Atanasov       : Ab Initio Ligand Field Theory
   Alexander A. Auer      : GIAO ZORA
   Ute Becker             : Parallelization
   Giovanni Bistoni       : ED, Open-shell LED
   Martin Brehm           : Molecular dynamics
   Dmytro Bykov           : SCF Hessian
   Vijay G. Chilkuri      : MRCI spin determinant printing
   Dipayan Datta          : RHF DLPNO-CCSD density
   Achintya Kumar Dutta   : EOM-CC, STEOM-CC
   Dmitry Ganyushin       : Spin-Orbit,Spin-Spin,Magnetic field MRCI
   Miquel Garcia          : C-PCM Hessian
   Yang Guo               : DLPNO-NEVPT2, CIM, IAO-localization
   Andreas Hansen         : Spin unrestricted coupled pair/coupled cluster methods
   Benjamin Helmich-Paris : CASSCF linear response (MC-RPA)
   Lee Huntington         : MR-EOM, pCC
   Robert Izsak           : Overlap fitted RIJCOSX, COSX-SCS-MP3, EOM
   Christian Kollmar      : KDIIS, OOCD, Brueckner-CCSD(T), CCSD density
   Simone Kossmann        : Meta GGA functionals, TD-DFT gradient, OOMP2, MP2 Hessian
   Martin Krupicka        : AUTO-CI
   Lucas Lang             : DCDCAS
   Dagmar Lenk            : GEPOL surface, SMD
   Dimitrios Liakos       : Extrapolation schemes; parallel MDCI
   Dimitrios Manganas     : ROCIS; embedding schemes
   Dimitrios Pantazis     : SARC Basis sets
   Taras Petrenko         : DFT Hessian,TD-DFT gradient, ASA, ECA, R-Raman, ABS, FL, XAS/XES, NRVS
   Peter Pinski           : DLPNO-MP2, DLPNO-MP2 Gradient
   Christoph Reimann      : Effective Core Potentials
   Marius Retegan         : Local ZFS, SOC
   Christoph Riplinger    : Optimizer, TS searches, QM/MM, DLPNO-CCSD(T), (RO)-DLPNO pert. Triples
   Tobias Risthaus        : Range-separated hybrids, TD-DFT gradient, RPA, STAB
   Michael Roemelt        : Restricted open shell CIS
   Masaaki Saitow         : Open-shell DLPNO
   Barbara Sandhoefer     : DKH picture change effects
   Avijit Sen             : IP-ROCIS
   Kantharuban Sivalingam : CASSCF convergence, NEVPT2, FIC-MRCI
   Bernardo de Souza      : ESD, SOC TD-DFT
   Georgi Stoychev        : AutoAux, RI-MP2 NMR
   Willem Van den Heuvel  : Paramagnetic NMR
   Boris Wezisla          : Elementary symmetry handling
   Frank Wennmohs         : Technical directorship


 We gratefully acknowledge several colleagues who have allowed us to
 interface, adapt or use parts of their codes:
   Stefan Grimme, W. Hujo, H. Kruse,             : VdW corrections, initial TS optimization,
                  C. Bannwarth                     DFT functionals, gCP, sTDA/sTD-DF
   Ed Valeev                                     : LibInt (2-el integral package), F12 methods
   Garnet Chan, S. Sharma, J. Yang, R. Olivares  : DMRG
   Ulf Ekstrom                                   : XCFun DFT Library
   Mihaly Kallay                                 : mrcc  (arbitrary order and MRCC methods)
   Andreas Klamt, Michael Diedenhofen            : otool_cosmo (COSMO solvation model)
   Jiri Pittner, Ondrej Demel                    : Mk-CCSD
   Frank Weinhold                                : gennbo (NPA and NBO analysis)
   Christopher J. Cramer and Donald G. Truhlar   : smd solvation model
   Lars Goerigk                                  : TD-DFT with DH, B97 family of functionals
   V. Asgeirsson, H. Jonsson                     : NEB implementation
   FAccTs GmbH                                   : IRC, NEB, NEB-TS, Multilevel


 Your calculation uses the libint2 library for the computation of 2-el integrals
 For citations please refer to: http://libint.valeyev.net

 This ORCA versions uses:
   CBLAS   interface :  Fast vector & matrix operations
   LAPACKE interface :  Fast linear algebra routines
   SCALAPACK package :  Parallel linear algebra routines




***************************************
The coordinates will be read from file: 5gly.xyz
***************************************


----- Orbital basis set information -----
Your calculation utilizes the basis: def2-TZVP
   F. Weigend and R. Ahlrichs, Phys. Chem. Chem. Phys. 7, 3297 (2005).

----- AuxJK basis set information -----
Your calculation utilizes the auxiliary basis: def2/JK
   H-Ba, Hf-Rn: F. Weigend, J. Comput. Chem. 29, 167 (2008).

================================================================================
                                        WARNINGS
                       Please study these warnings very carefully!
================================================================================


INFO   : the flag for use of LIBINT has been found!

================================================================================
                                       INPUT FILE
================================================================================
NAME = orca.in
|  1> ! rhf def2-tzvp conv rijk def2/jk kdiis NOAUTOSTART 
|  2> %scf
|  3> maxdisk 20000
|  4> maxintmem 10000
|  5> end
|  6> %output
|  7> Print[P_SCFIterInfo] 3
|  8> end
|  9> %maxcore 10000
| 10> *xyzfile 0 1 5gly.xyz
| 11> 
| 12>                          ****END OF INPUT****
================================================================================

                       ****************************
                       * Single Point Calculation *
                       ****************************

---------------------------------
CARTESIAN COORDINATES (ANGSTROEM)
---------------------------------
  N     -7.010979   -1.213049   -0.082146
  C     -5.864553   -0.369148    0.153795
  C     -5.398177   -0.531392    1.591262
  O     -6.182405   -0.681809    2.506892
  H     -5.061419   -0.633633   -0.540213
  H     -6.046986    0.709654    0.014301
  H     -7.649333   -1.138680    0.698041
  H     -7.502142   -0.923417   -0.914453
  N     -4.067763   -0.438567    1.779430
  C     -3.484827   -0.536150    3.083387
  C     -1.971539   -0.452837    2.962227
  O     -1.405361   -0.418643    1.886991
  H     -3.852294    0.258669    3.740634
  H     -3.755997   -1.481532    3.565976
  H     -3.425439   -0.394547    1.003937
  N     -1.320130   -0.434400    4.137126
  C      0.108775   -0.362301    4.208939
  C      0.528781   -0.298053    5.669317
  O     -0.277591   -0.205919    6.573417
  H      0.572984   -1.227131    3.723742
  H      0.485062    0.523452    3.685796
  H     -1.817238   -0.415814    5.015481
  N      1.856689   -0.340588    5.868004
  C      2.427013   -0.287111    7.181313
  C      3.925629   -0.518230    7.076260
  O      4.480975   -0.712719    6.013683
  H      2.235051    0.680181    7.657935
  H      1.981434   -1.045657    7.832704
  H      2.502668   -0.464807    5.102498
  N      4.582832   -0.490630    8.249713
  C      5.997329   -0.704736    8.310897
  C      6.471703   -0.583776    9.747281
  O      5.748220   -0.323570   10.660418
  H      6.261080   -1.694863    7.920328
  H      6.531811    0.022815    7.688625
  H      4.105485   -0.310053    9.120161
  O      7.774452   -0.785879    9.936371
  H      8.233661   -0.997320    9.116618

----------------------------
CARTESIAN COORDINATES (A.U.)
----------------------------
  NO LB      ZA    FRAG     MASS         X           Y           Z
   0 N     7.0000    0    14.007  -13.248830   -2.292330   -0.155234
   1 C     6.0000    0    12.011  -11.082400   -0.697590    0.290630
   2 C     6.0000    0    12.011  -10.201077   -1.004185    3.007050
   3 O     8.0000    0    15.999  -11.683051   -1.288431    4.737339
   4 H     1.0000    0     1.008   -9.564695   -1.197393   -1.020854
   5 H     1.0000    0     1.008  -11.427147    1.341052    0.027025
   6 H     1.0000    0     1.008  -14.455144   -2.151794    1.319107
   7 H     1.0000    0     1.008  -14.176995   -1.745005   -1.728066
   8 N     7.0000    0    14.007   -7.686959   -0.828772    3.362636
   9 C     6.0000    0    12.011   -6.585368   -1.013177    5.826758
  10 C     6.0000    0    12.011   -3.725668   -0.855738    5.597798
  11 O     8.0000    0    15.999   -2.655746   -0.791120    3.565895
  12 H     1.0000    0     1.008   -7.279781    0.488814    7.068773
  13 H     1.0000    0     1.008   -7.097806   -2.799689    6.738718
  14 H     1.0000    0     1.008   -6.473141   -0.745586    1.897167
  15 N     7.0000    0    14.007   -2.494684   -0.820897    7.818036
  16 C     6.0000    0    12.011    0.205554   -0.684649    7.953743
  17 C     6.0000    0    12.011    0.999252   -0.563239   10.713457
  18 O     8.0000    0    15.999   -0.524572   -0.389131   12.421957
  19 H     1.0000    0     1.008    1.082782   -2.318941    7.036852
  20 H     1.0000    0     1.008    0.916635    0.989181    6.965145
  21 H     1.0000    0     1.008   -3.434083   -0.785775    9.477886
  22 N     7.0000    0    14.007    3.508635   -0.643618   11.088920
  23 C     6.0000    0    12.011    4.586389   -0.542562   13.570715
  24 C     6.0000    0    12.011    7.418363   -0.979313   13.372194
  25 O     8.0000    0    15.999    8.467816   -1.346843   11.364215
  26 H     1.0000    0     1.008    4.223634    1.285356   14.471401
  27 H     1.0000    0     1.008    3.744367   -1.976006   14.801666
  28 H     1.0000    0     1.008    4.729357   -0.878358    9.642324
  29 N     7.0000    0    14.007    8.660297   -0.927157   15.589699
  30 C     6.0000    0    12.011   11.333309   -1.331758   15.705320
  31 C     6.0000    0    12.011   12.229746   -1.103177   18.419693
  32 O     8.0000    0    15.999   10.862562   -0.611459   20.145271
  33 H     1.0000    0     1.008   11.831726   -3.202826   14.967250
  34 H     1.0000    0     1.008   12.343334    0.043114   14.529395
  35 H     1.0000    0     1.008    7.758242   -0.585915   17.234606
  36 O     8.0000    0    15.999   14.691584   -1.485096   18.777020
  37 H     1.0000    0     1.008   15.559365   -1.884662   17.227911

--------------------------------
INTERNAL COORDINATES (ANGSTROEM)
--------------------------------
 N      0   0   0     0.000000000000     0.00000000     0.00000000
 C      1   0   0     1.442957404708     0.00000000     0.00000000
 C      2   1   0     1.519915238614   109.63333611     0.00000000
 O      3   2   1     1.214913820189   121.86531634   323.06738197
 H      2   1   3     1.093903070204   109.76560394   121.45640177
 H      2   1   3     1.102975543968   114.83041458   240.88849069
 H      1   2   3     1.010801221944   109.42152201    43.89735705
 H      1   2   3     1.008892174756   110.71904997   162.76134345
 N      3   2   1     1.346857283352   115.33253510   145.81151931
 C      9   3   2     1.431657047216   121.65175683   178.36663088
 C     10   9   3     1.520414690257   109.20517657   177.62051855
 O     11  10   9     1.215673090133   122.38281674   354.67279605
 H     10   9   3     1.094871667560   111.13765891   299.15966848
 H     10   9   3     1.095523083036   111.05414926    57.14789662
 H      9   3   2     1.007922663004   121.66914904   351.81552498
 N     11  10   9     1.343525490356   114.43385291   175.31934713
 C     16  11  10     1.432523773499   121.88085102   179.81546001
 C     17  16  11     1.520932760079   109.00881525   177.56255273
 O     18  17  16     1.214957530813   122.30554821   354.16533095
 H     17  16  11     1.094914460657   111.15723622   298.95844870
 H     17  16  11     1.095367003970   111.06428521    57.15084927
 H     16  11  10     1.009439927684   121.49421428   356.15143505
 N     18  17  16     1.343363515129   114.43431097   174.68469398
 C     23  18  17     1.432798166469   121.86064641   179.83694619
 C     24  23  18     1.519967683242   108.87050524   173.47410062
 O     25  24  23     1.214621588063   122.38501505   359.89770437
 H     24  23  18     1.095295725558   111.22696972   294.47187398
 H     24  23  18     1.094642618533   110.95011697    52.65526444
 H     23  18  17     1.009315264810   121.62617180   356.29990078
 N     25  24  23     1.345239640242   114.72530839   179.93070717
 C     30  25  24     1.431917156077   121.11792092   179.40601824
 C     31  30  25     1.517518157553   109.71375128   178.59645146
 O     32  31  30     1.193713843956   123.50244699   358.75356977
 H     31  30  25     1.096567278772   110.93993634   299.72134139
 H     31  30  25     1.096459926912   110.98145493    57.59684282
 H     30  25  24     1.009032818356   121.67166747   358.78819083
 O     32  31  30     1.331824003182   115.34484172   178.92877418
 H     37  32  31     0.963107670384   112.26313168   359.11611821

---------------------------
INTERNAL COORDINATES (A.U.)
---------------------------
 N      0   0   0     0.000000000000     0.00000000     0.00000000
 C      1   0   0     2.726794317811     0.00000000     0.00000000
 C      2   1   0     2.872223547755   109.63333611     0.00000000
 O      3   2   1     2.295854396473   121.86531634   323.06738197
 H      2   1   3     2.067177219740   109.76560394   121.45640177
 H      2   1   3     2.084321710513   114.83041458   240.88849069
 H      1   2   3     1.910137485306   109.42152201    43.89735705
 H      1   2   3     1.906529908946   110.71904997   162.76134345
 N      3   2   1     2.545191407013   115.33253510   145.81151931
 C      9   3   2     2.705439736936   121.65175683   178.36663088
 C     10   9   3     2.873167374576   109.20517657   177.62051855
 O     11  10   9     2.297289208729   122.38281674   354.67279605
 H     10   9   3     2.069007603478   111.13765891   299.15966848
 H     10   9   3     2.070238600327   111.05414926    57.14789662
 H      9   3   2     1.904697797250   121.66914904   351.81552498
 N     11  10   9     2.538895230715   114.43385291   175.31934713
 C     16  11  10     2.707077612244   121.88085102   179.81546001
 C     17  16  11     2.874146384658   109.00881525   177.56255273
 O     18  17  16     2.295936997581   122.30554821   354.16533095
 H     17  16  11     2.069088470712   111.15723622   298.95844870
 H     17  16  11     2.069943653638   111.06428521    57.15084927
 H     16  11  10     1.907565011967   121.49421428   356.15143505
 N     18  17  16     2.538589141895   114.43431097   174.68469398
 C     23  18  17     2.707596139810   121.86064641   179.83694619
 C     24  23  18     2.872322653738   108.87050524   173.47410062
 O     25  24  23     2.295302157788   122.38501505   359.89770437
 H     24  23  18     2.069808956960   111.22696972   294.47187398
 H     24  23  18     2.068574763545   110.95011697    52.65526444
 H     23  18  17     1.907329433276   121.62617180   356.29990078
 N     25  24  23     2.542134504552   114.72530839   179.93070717
 C     30  25  24     2.705931271449   121.11792092   179.40601824
 C     31  30  25     2.867693721028   109.71375128   178.59645146
 O     32  31  30     2.255792247347   123.50244699   358.75356977
 H     31  30  25     2.072211844299   110.93993634   299.72134139
 H     31  30  25     2.072008978684   110.98145493    57.59684282
 H     30  25  24     1.906795686832   121.67166747   358.78819083
 O     32  31  30     2.516782624596   115.34484172   178.92877418
 H     37  32  31     1.820009734504   112.26313168   359.11611821

---------------------
BASIS SET INFORMATION
---------------------
There are 4 groups of distinct atoms

 Group   1 Type N   : 11s6p2d1f contracted to 5s3p2d1f pattern {62111/411/11/1}
 Group   2 Type C   : 11s6p2d1f contracted to 5s3p2d1f pattern {62111/411/11/1}
 Group   3 Type O   : 11s6p2d1f contracted to 5s3p2d1f pattern {62111/411/11/1}
 Group   4 Type H   : 5s1p contracted to 3s1p pattern {311/1}

Atom   0N    basis set group =>   1
Atom   1C    basis set group =>   2
Atom   2C    basis set group =>   2
Atom   3O    basis set group =>   3
Atom   4H    basis set group =>   4
Atom   5H    basis set group =>   4
Atom   6H    basis set group =>   4
Atom   7H    basis set group =>   4
Atom   8N    basis set group =>   1
Atom   9C    basis set group =>   2
Atom  10C    basis set group =>   2
Atom  11O    basis set group =>   3
Atom  12H    basis set group =>   4
Atom  13H    basis set group =>   4
Atom  14H    basis set group =>   4
Atom  15N    basis set group =>   1
Atom  16C    basis set group =>   2
Atom  17C    basis set group =>   2
Atom  18O    basis set group =>   3
Atom  19H    basis set group =>   4
Atom  20H    basis set group =>   4
Atom  21H    basis set group =>   4
Atom  22N    basis set group =>   1
Atom  23C    basis set group =>   2
Atom  24C    basis set group =>   2
Atom  25O    basis set group =>   3
Atom  26H    basis set group =>   4
Atom  27H    basis set group =>   4
Atom  28H    basis set group =>   4
Atom  29N    basis set group =>   1
Atom  30C    basis set group =>   2
Atom  31C    basis set group =>   2
Atom  32O    basis set group =>   3
Atom  33H    basis set group =>   4
Atom  34H    basis set group =>   4
Atom  35H    basis set group =>   4
Atom  36O    basis set group =>   3
Atom  37H    basis set group =>   4
-------------------------------
AUXILIARY BASIS SET INFORMATION
-------------------------------
There are 4 groups of distinct atoms

 Group   1 Type N   : 14s10p6d2f1g contracted to 10s8p4d2f1g pattern {5111111111/31111111/3111/11/1}
 Group   2 Type C   : 14s10p6d2f1g contracted to 10s8p5d1f1g pattern {5111111111/31111111/21111/2/1}
 Group   3 Type O   : 14s10p6d2f1g contracted to 10s8p4d2f1g pattern {5111111111/31111111/3111/11/1}
 Group   4 Type H   : 4s2p2d contracted to 2s2p2d pattern {31/11/11}

Atom   0N    basis set group =>   1
Atom   1C    basis set group =>   2
Atom   2C    basis set group =>   2
Atom   3O    basis set group =>   3
Atom   4H    basis set group =>   4
Atom   5H    basis set group =>   4
Atom   6H    basis set group =>   4
Atom   7H    basis set group =>   4
Atom   8N    basis set group =>   1
Atom   9C    basis set group =>   2
Atom  10C    basis set group =>   2
Atom  11O    basis set group =>   3
Atom  12H    basis set group =>   4
Atom  13H    basis set group =>   4
Atom  14H    basis set group =>   4
Atom  15N    basis set group =>   1
Atom  16C    basis set group =>   2
Atom  17C    basis set group =>   2
Atom  18O    basis set group =>   3
Atom  19H    basis set group =>   4
Atom  20H    basis set group =>   4
Atom  21H    basis set group =>   4
Atom  22N    basis set group =>   1
Atom  23C    basis set group =>   2
Atom  24C    basis set group =>   2
Atom  25O    basis set group =>   3
Atom  26H    basis set group =>   4
Atom  27H    basis set group =>   4
Atom  28H    basis set group =>   4
Atom  29N    basis set group =>   1
Atom  30C    basis set group =>   2
Atom  31C    basis set group =>   2
Atom  32O    basis set group =>   3
Atom  33H    basis set group =>   4
Atom  34H    basis set group =>   4
Atom  35H    basis set group =>   4
Atom  36O    basis set group =>   3
Atom  37H    basis set group =>   4
------------------------------------------------------------------------------
                           ORCA GTO INTEGRAL CALCULATION
                           -- RI-GTO INTEGRALS CHOSEN --
------------------------------------------------------------------------------

                         BASIS SET STATISTICS AND STARTUP INFO

Gaussian basis set:
 # of primitive gaussian shells          ...  522
 # of primitive gaussian functions       ... 1102
 # of contracted shells                  ...  299
 # of contracted basis functions         ...  753
 Highest angular momentum                ...    3
 Maximum contraction depth               ...    6
Auxiliary gaussian basis set:
 # of primitive gaussian shells          ...  829
 # of primitive gaussian functions       ... 2377
 # of contracted shells                  ...  627
 # of contracted aux-basis functions     ... 1903
 Highest angular momentum                ...    4
 Maximum contraction depth               ...    5
Ratio of auxiliary to basis functions    ...  2.53
Integral package used                  ... LIBINT
 One Electron integrals                  ... done
 Ordering auxiliary basis shells         ... done
 Integral threshhold             Thresh  ...  1.000e-10
 Primitive cut-off               TCut    ...  1.000e-11
 Pre-screening matrix                    ... done
 Shell pair data                         ... 
 Ordering of the shell pairs             ... done (   0.005 sec) 23348 of 44850 pairs
 Determination of significant pairs      ... done (   0.000 sec)
 Creation of shell pair data             ... done (   0.004 sec)
 Storage of shell pair data              ... done (   0.004 sec)
 Shell pair data done in (   0.013 sec)
 Computing two index integrals           ... done
 Cholesky decomposition of the V-matrix  ... done
 Computing three index integrals:
 <ss|s> ...  1457412 b.        0 skpd (  0.0%)     0.461 s. (  0.000 ms/b)
 <ss|p> ...  1206546 b.        0 skpd (  0.0%)     0.504 s. (  0.000 ms/b)
 <ss|d> ...   764544 b.        0 skpd (  0.0%)     0.399 s. (  0.001 ms/b)
 <ss|f> ...   191136 b.        0 skpd (  0.0%)     0.120 s. (  0.001 ms/b)
 <ss|g> ...   125433 b.        0 skpd (  0.0%)     0.073 s. (  0.001 ms/b)
 <sp|s> ...  1584048 b.        0 skpd (  0.0%)     0.802 s. (  0.001 ms/b)
 <sp|p> ...  1311384 b.        0 skpd (  0.0%)     0.786 s. (  0.001 ms/b)
 <sp|d> ...   830976 b.        0 skpd (  0.0%)     0.689 s. (  0.001 ms/b)
 <sp|f> ...   207744 b.        0 skpd (  0.0%)     0.227 s. (  0.001 ms/b)
 <sp|g> ...   136332 b.        0 skpd (  0.0%)     0.160 s. (  0.001 ms/b)
 <sd|s> ...   745420 b.        0 skpd (  0.0%)     0.363 s. (  0.000 ms/b)
 <sd|p> ...   617110 b.        0 skpd (  0.0%)     0.426 s. (  0.001 ms/b)
 <sd|d> ...   391040 b.        0 skpd (  0.0%)     0.391 s. (  0.001 ms/b)
 <sd|f> ...    97760 b.        0 skpd (  0.0%)     0.138 s. (  0.001 ms/b)
 <sd|g> ...    64155 b.        0 skpd (  0.0%)     0.103 s. (  0.002 ms/b)
 <sf|s> ...   355264 b.        0 skpd (  0.0%)     0.240 s. (  0.001 ms/b)
 <sf|p> ...   294112 b.        0 skpd (  0.0%)     0.271 s. (  0.001 ms/b)
 <sf|d> ...   186368 b.        0 skpd (  0.0%)     0.265 s. (  0.001 ms/b)
 <sf|f> ...    46592 b.        0 skpd (  0.0%)     0.104 s. (  0.002 ms/b)
 <sf|g> ...    30576 b.        0 skpd (  0.0%)     0.069 s. (  0.002 ms/b)
 <pp|s> ...   443348 b.        0 skpd (  0.0%)     0.323 s. (  0.001 ms/b)
 <pp|p> ...   367034 b.        0 skpd (  0.0%)     0.418 s. (  0.001 ms/b)
 <pp|d> ...   232576 b.        0 skpd (  0.0%)     0.405 s. (  0.002 ms/b)
 <pp|f> ...    58144 b.        0 skpd (  0.0%)     0.142 s. (  0.002 ms/b)
 <pp|g> ...    38157 b.        0 skpd (  0.0%)     0.113 s. (  0.003 ms/b)
 <pd|s> ...   412604 b.        0 skpd (  0.0%)     0.354 s. (  0.001 ms/b)
 <pd|p> ...   341582 b.        0 skpd (  0.0%)     0.508 s. (  0.001 ms/b)
 <pd|d> ...   216448 b.        0 skpd (  0.0%)     0.521 s. (  0.002 ms/b)
 <pd|f> ...    54112 b.        0 skpd (  0.0%)     0.182 s. (  0.003 ms/b)
 <pd|g> ...    35511 b.        0 skpd (  0.0%)     0.146 s. (  0.004 ms/b)
 <pf|s> ...   194956 b.        0 skpd (  0.0%)     0.228 s. (  0.001 ms/b)
 <pf|p> ...   161398 b.        0 skpd (  0.0%)     0.348 s. (  0.002 ms/b)
 <pf|d> ...   102272 b.        0 skpd (  0.0%)     0.370 s. (  0.004 ms/b)
 <pf|f> ...    25568 b.        0 skpd (  0.0%)     0.122 s. (  0.005 ms/b)
 <pf|g> ...    16779 b.        0 skpd (  0.0%)     0.102 s. (  0.006 ms/b)
 <dd|s> ...   101016 b.        0 skpd (  0.0%)     0.123 s. (  0.001 ms/b)
 <dd|p> ...    83628 b.        0 skpd (  0.0%)     0.196 s. (  0.002 ms/b)
 <dd|d> ...    52992 b.        0 skpd (  0.0%)     0.205 s. (  0.004 ms/b)
 <dd|f> ...    13248 b.        0 skpd (  0.0%)     0.079 s. (  0.006 ms/b)
 <dd|g> ...     8694 b.        0 skpd (  0.0%)     0.060 s. (  0.007 ms/b)
 <df|s> ...    87352 b.        0 skpd (  0.0%)     0.152 s. (  0.002 ms/b)
 <df|p> ...    72316 b.        0 skpd (  0.0%)     0.262 s. (  0.004 ms/b)
 <df|d> ...    45824 b.        0 skpd (  0.0%)     0.303 s. (  0.007 ms/b)
 <df|f> ...    11456 b.        0 skpd (  0.0%)     0.110 s. (  0.010 ms/b)
 <df|g> ...     7518 b.        0 skpd (  0.0%)     0.105 s. (  0.014 ms/b)
 <ff|s> ...    24156 b.        0 skpd (  0.0%)     0.063 s. (  0.003 ms/b)
 <ff|p> ...    19998 b.        0 skpd (  0.0%)     0.104 s. (  0.005 ms/b)
 <ff|d> ...    12672 b.        0 skpd (  0.0%)     0.124 s. (  0.010 ms/b)
 <ff|f> ...     3168 b.        0 skpd (  0.0%)     0.055 s. (  0.017 ms/b)
 <ff|g> ...     2079 b.        0 skpd (  0.0%)     0.050 s. (  0.024 ms/b)



                                      INTEGRAL STATISTICS

Integral type statistics:
 Number of integrals retained            ...  211866478 

Storage statistics:

Prescreening statistics:
 Total number of shell triples           ...   28120950 
 Number of skipped shell triples         ...          0 (  0.0%)

Timings:
 Total evaluation time                   ...  14.424 sec (  0.240 min)
 One electron matrix time                ...   0.253 sec (  0.004 min) =  1.8%
 Schwartz matrix evaluation time         ...   0.595 sec (  0.010 min) =  4.1%
 Two index repulsion integral time       ...   0.108 sec (  0.002 min) =  0.8%
 Cholesky decomposition of V             ...   0.105 sec (  0.002 min) =  0.7%
 Three index repulsion integral time     ...  13.107 sec (  0.218 min) = 90.9%

-------------------------------------------------------------------------------
                                 ORCA SCF
-------------------------------------------------------------------------------

------------
SCF SETTINGS
------------
Hamiltonian:
 Ab initio Hamiltonian  Method          .... Hartree-Fock(GTOs)
 RI-approximation to the Coulomb term is turned on
   Number of auxiliary basis functions  .... 1903
   RI-JK (J+K treated both via RI)      .... on


General Settings:
 Integral files         IntName         .... orca
 Hartree-Fock type      HFTyp           .... RHF
 Total Charge           Charge          ....    0
 Multiplicity           Mult            ....    1
 Number of Electrons    NEL             ....  160
 Basis Dimension        Dim             ....  753
 Nuclear Repulsion      ENuc            ....   1547.1551840586 Eh

Convergence Acceleration:
 DIIS                   CNVDIIS         .... off
 Newton-Raphson         CNVNR           .... off
 SOSCF                  CNVSOSCF        .... off
 Level Shifting         CNVShift        .... off
 Zerner damping         CNVZerner       .... off
 Static damping         CNVDamp         .... off
 Fernandez-Rico         CNVRico         .... off

SCF Procedure:
 Maximum # iterations   MaxIter         ....   125
 SCF integral mode      SCFMode         .... Conventional
 Integral Threshold     Thresh          ....  1.000e-10 Eh
 Primitive CutOff       TCut            ....  1.000e-11 Eh
 Integral Buffer length BufferLength    .... 1048576
 Integral index format  IndFormat       ....     1
 Integral value format  ValFormat       ....     0
 Integral Storage       Thresh          ....  1.000e-10 Eh

Convergence Tolerance:
 Convergence Check Mode ConvCheckMode   .... All-Criteria
 Convergence forced     ConvForced      .... 0
 Energy Change          TolE            ....  1.000e-06 Eh
 Max Density Change     TolMaxP         ....  1.000e-05
 RMS Density Change     TolRMSP         ....  1.000e-06


Diagonalization of the overlap matrix:
Smallest eigenvalue                        ... 1.370e-04
Time for diagonalization                   ...    0.142 sec
Threshold for overlap eigenvalues          ... 1.000e-08
Number of eigenvalues below threshold      ... 0
Time for construction of square roots      ...    0.062 sec
Total time needed                          ...    0.207 sec

-------------------
DFT GRID GENERATION
-------------------

General Integration Accuracy     IntAcc      ...  4.340
Radial Grid Type                 RadialGrid  ... Gauss-Chebyshev
Angular Grid (max. acc.)         AngularGrid ... Lebedev-110
Angular grid pruning method      GridPruning ... 3 (G Style)
Weight generation scheme         WeightScheme... Becke
Basis function cutoff            BFCut       ...    1.0000e-10
Integration weight cutoff        WCut        ...    1.0000e-14
Grids for H and He will be reduced by one unit

# of grid points (after initial pruning)     ...  48864 (   0.0 sec)
# of grid points (after weights+screening)   ...  44739 (   0.7 sec)
nearest neighbour list constructed           ...    0.0 sec
Grid point re-assignment to atoms done       ...    0.0 sec
Grid point division into batches done        ...    0.0 sec
Reduced shell lists constructed in    2.7 sec

Total number of grid points                  ...    44739
Total number of batches                      ...      715
Average number of points per batch           ...       62
Average number of grid points per atom       ...     1177
Average number of shells per batch           ...    99.48 (33.27%)
Average number of basis functions per batch  ...   243.67 (32.36%)
Average number of large shells per batch     ...    68.64 (69.00%)
Average number of large basis fcns per batch ...   170.36 (69.91%)
Average number of aux-shells per batch       ...    99.48 (15.87%)
Average number of aux functions per batch    ...   243.67 (12.80%)
Maximum spatial batch extension              ...  19.07, 24.74, 19.38 au
Average spatial batch extension              ...   3.21,  3.71,  3.39 au

Time for grid setup =    3.431 sec

------------------------------
INITIAL GUESS: MODEL POTENTIAL
------------------------------
Loading Hartree-Fock densities                     ... done
Calculating cut-offs                               ... done
Setting up the integral package                    ... done
Initializing the effective Hamiltonian             ... done
Starting the Coulomb interaction                   ... done (   2.4 sec)
Reading the grid                                   ... done
Mapping shells                                     ... done
Starting the XC term evaluation                    ... done (   0.9 sec)
Transforming the Hamiltonian                       ... done (   0.1 sec)
Diagonalizing the Hamiltonian                      ... done (   0.1 sec)
Back transforming the eigenvectors                 ... done (   0.0 sec)
Now organizing SCF variables                       ... done
                      ------------------
                      INITIAL GUESS DONE (   7.1 sec)
                      ------------------

Time for the initial guess:    7.117 sec
--------------
SCF ITERATIONS
--------------
SCF-RHF/UHF-DIIS - Entering subroutine

op=0 irreps int iter   0: 0 0 0 0 0 0 0 0 0 0 0 0 0 0 0 0 0 0 0 0 0 0 0 0 0 0 0 0 0 0 0 0 0 0 0 0 0 0 0 0 0 0 0 0 0 0 0 0 0 0 0 0 0 0 0 0 0 0 0 0 0 0 0 0 0 0 0 0 0 0 0 0 0 0 0 0 0 0 0 0 0 0 0 0 0 0 0 0 0 0 0 0 0 0 0 0 0 0 0 0 0 0 0 0 0 0 0 0 0 0 0 0 0 0 0 0 0 0 0 0 0 0 0 0 0 0 0 0 0 0 0 0 0 0 0 0 0 0 0 0 0 0 0 0 0 0 0 0 0 0 0 0 0 0 0 0 0 0 0 0 0 0 0 0 0 0 0 0 0 0 0 0 0 0 0 0 0 0 0 0 0 0 0 0 0 0 0 0 0 0 0 0 0 0 0 0 0 0 0 0 0 0 0 0 0 0 0 0 0 0 0 0 0 0 0 0 0 0 0 0 0 0 0 0 0 0 0 0 0 0 0 0 0 0 0 0 0 0 0 0 0 0 0 0 0 0 0 0 0 0 0 0 0 0 0 0 0 0 0 0 0 0 0 0 0 0 0 0 0 0 0 0 0 0 0 0 0 0 0 0 0 0 0 0 0 0 0 0 0 0 0 0 0 0 0 0 0 0 0 0 0 0 0 0 0 0 0 0 0 0 0 0 0 0 0 0 0 0 0 0 0 0 0 0 0 0 0 0 0 0 0 0 0 0 0 0 0 0 0 0 0 0 0 0 0 0 0 0 0 0 0 0 0 0 0 0 0 0 0 0 0 0 0 0 0 0 0 0 0 0 0 0 0 0 0 0 0 0 0 0 0 0 0 0 0 0 0 0 0 0 0 0 0 0 0 0 0 0 0 0 0 0 0 0 0 0 0 0 0 0 0 0 0 0 0 0 0 0 0 0 0 0 0 0 0 0 0 0 0 0 0 0 0 0 0 0 0 0 0 0 0 0 0 0 0 0 0 0 0 0 0 0 0 0 0 0 0 0 0 0 0 0 0 0 0 0 0 0 0 0 0 0 0 0 0 0 0 0 0 0 0 0 0 0 0 0 0 0 0 0 0 0 0 0 0 0 0 0 0 0 0 0 0 0 0 0 0 0 0 0 0 0 0 0 0 0 0 0 0 0 0 0 0 0 0 0 0 0 0 0 0 0 0 0 0 0 0 0 0 0 0 0 0 0 0 0 0 0 0 0 0 0 0 0 0 0 0 0 0 0 0 0 0 0 0 0 0 0 0 0 0 0 0 0 0 0 0 0 0 0 0 0 0 0 0 0 0 0 0 0 0 0 0 0 0 0 0 0 0 0 0 0 0 0 0 0 0 0 0 0 0 0 0 0 0 0 0 0 0 0 0 0 0 0 0 0 0 0 0 0 0 0 0 0 0 0 0 0 0 0 0 0 0 0 0 0 0 0 0 0 0 0 0 0 0 0 0 0 0 0 0 0 0 0 0 0 0 0 0 0 0 0 0 0 0 0 0 0 0 0 0 0 0 0 0 0 0 0 0 0 0 0 0 0 0 0 0 0 0 0 0 0 0 0 0 0 0 0 0 0 0 0 0 0 0 0 0 0 0 0 0 0 0 0 0 0 0 0 0 0 0 0 0 0 0 0 0 0 0 0 0 0 0 0 0 0 0 0 0 0 0 0 0 
CalcFockMatrix - entering subroutine
Initializing the integral list                    ... done
Getting Cholesky decomposed V-matrix              ... done
Scaling the total density                         ... done
Batch   0: i=  0.. 79
  Making batch data          ... done
  Making IBUFF               ... done
  Entering conventional      ... 
  Getting memory             ... done
  AO-Batch   0: k=   0-1902
  Reading                    ... done
  Coulomb                    ... done
  Exchange                   ... done
  Conventional AO part done
  Entering exchange          ... done
Getting  inverse V matrix                         ... Solving linear equations                          ... done
Making TSCREEN                                    ... done
Coulomb conventional section                      ... done
Updating the Fock matrix                          ... done
Unscaling the density                             ... done

Timings:
Total time                             ...    44.219 sec

Integral generation                    ...     0.000 sec
I/O and exchange intermediate          ...    21.593 sec
Exchange Completion                    ...    19.981 sec
Coulomb equation solution              ...     0.003 sec
Coulomb second pass                    ...     2.146 sec

CalcFockMatrix - time for F was   44.228sec
CalcFockMatrix - leaving subroutine
SCF-RHF/UHF-DIIS - Time for F =   44.228
CalcEnergy - Entering Routine
CalcEnergy - Individual Terms:
E(Nuc)       =   1547.155184059
E(el)        =  -2656.711257756
E(SCF)       =  -1109.556073697
<VCOSMO>     =      0.000000000
E(diel)      =      0.000000000
ESCF-<VCOSMO>=  -1109.556073697
 +E(diel)    =  -1109.556073697
<VDFET>      =      0.000000000
SCF-RHF/UHF-DIIS - Time for E =    0.002
                             ****Turning on KDIIS(Cayley)****
SCF-RHF/UHF-DIIS - Time for D =    0.142
CalcDensityMatrix - entering subroutine
CalcDensityMatrix - finished initialization
CalcDensityMatrix - entering BuildDensity
CalcDensityMatrix - HOMO[0] = 79
CalcDensityMatrix - leaving BuildDensity
CalcDensityMatrix - entering damping
CalcDensityMatrix - leaving damping
CalcDensityMatrix - entering RMS density
CalcDensityMatrix - leaving RMS density
CalcDensityMatrix - Total time =    0.018
CalcDensityMatrix - leaving subroutine
SCF-RHF/UHF-DIIS - Time for Dens =    0.018

                         ----------------------------
                         !        ITERATION     0   !
                         ----------------------------
   Total Energy        :   -1109.556073697285 Eh
   Energy Change       :   -1109.556073697285 Eh
   MAX-DP              :       0.020453304165
   RMS-DP              :       0.000228918629
   Actual Damping      :       0.9000

SCF-RHF/UHF-DIIS - Total time for iteration =   44.409

op=0 irreps int iter   1: 0 0 0 0 0 0 0 0 0 0 0 0 0 0 0 0 0 0 0 0 0 0 0 0 0 0 0 0 0 0 0 0 0 0 0 0 0 0 0 0 0 0 0 0 0 0 0 0 0 0 0 0 0 0 0 0 0 0 0 0 0 0 0 0 0 0 0 0 0 0 0 0 0 0 0 0 0 0 0 0 0 0 0 0 0 0 0 0 0 0 0 0 0 0 0 0 0 0 0 0 0 0 0 0 0 0 0 0 0 0 0 0 0 0 0 0 0 0 0 0 0 0 0 0 0 0 0 0 0 0 0 0 0 0 0 0 0 0 0 0 0 0 0 0 0 0 0 0 0 0 0 0 0 0 0 0 0 0 0 0 0 0 0 0 0 0 0 0 0 0 0 0 0 0 0 0 0 0 0 0 0 0 0 0 0 0 0 0 0 0 0 0 0 0 0 0 0 0 0 0 0 0 0 0 0 0 0 0 0 0 0 0 0 0 0 0 0 0 0 0 0 0 0 0 0 0 0 0 0 0 0 0 0 0 0 0 0 0 0 0 0 0 0 0 0 0 0 0 0 0 0 0 0 0 0 0 0 0 0 0 0 0 0 0 0 0 0 0 0 0 0 0 0 0 0 0 0 0 0 0 0 0 0 0 0 0 0 0 0 0 0 0 0 0 0 0 0 0 0 0 0 0 0 0 0 0 0 0 0 0 0 0 0 0 0 0 0 0 0 0 0 0 0 0 0 0 0 0 0 0 0 0 0 0 0 0 0 0 0 0 0 0 0 0 0 0 0 0 0 0 0 0 0 0 0 0 0 0 0 0 0 0 0 0 0 0 0 0 0 0 0 0 0 0 0 0 0 0 0 0 0 0 0 0 0 0 0 0 0 0 0 0 0 0 0 0 0 0 0 0 0 0 0 0 0 0 0 0 0 0 0 0 0 0 0 0 0 0 0 0 0 0 0 0 0 0 0 0 0 0 0 0 0 0 0 0 0 0 0 0 0 0 0 0 0 0 0 0 0 0 0 0 0 0 0 0 0 0 0 0 0 0 0 0 0 0 0 0 0 0 0 0 0 0 0 0 0 0 0 0 0 0 0 0 0 0 0 0 0 0 0 0 0 0 0 0 0 0 0 0 0 0 0 0 0 0 0 0 0 0 0 0 0 0 0 0 0 0 0 0 0 0 0 0 0 0 0 0 0 0 0 0 0 0 0 0 0 0 0 0 0 0 0 0 0 0 0 0 0 0 0 0 0 0 0 0 0 0 0 0 0 0 0 0 0 0 0 0 0 0 0 0 0 0 0 0 0 0 0 0 0 0 0 0 0 0 0 0 0 0 0 0 0 0 0 0 0 0 0 0 0 0 0 0 0 0 0 0 0 0 0 0 0 0 0 0 0 0 0 0 0 0 0 0 0 0 0 0 0 0 0 0 0 0 0 0 0 0 0 0 0 0 0 0 0 0 0 0 0 0 0 0 0 0 0 0 0 0 0 0 0 0 0 0 0 0 0 0 0 0 0 0 0 0 0 0 0 0 0 0 0 0 0 0 0 0 0 0 0 0 0 0 0 0 0 0 0 0 0 0 0 0 0 0 0 0 0 0 0 0 0 0 0 0 0 0 0 0 0 0 0 0 0 0 0 0 0 0 0 0 0 0 0 0 0 0 0 0 0 0 0 0 0 0 0 0 0 0 0 0 0 0 0 
CalcFockMatrix - entering subroutine
Initializing the integral list                    ... done
Getting Cholesky decomposed V-matrix              ... done
Scaling the total density                         ... done
Batch   0: i=  0.. 79
  Making batch data          ... done
  Making IBUFF               ... done
  Entering conventional      ... 
  Getting memory             ... done
  AO-Batch   0: k=   0-1902
  Reading                    ... done
  Coulomb                    ... done
  Exchange                   ... done
  Conventional AO part done
  Entering exchange          ... done
Getting  inverse V matrix                         ... Solving linear equations                          ... done
Making TSCREEN                                    ... done
Coulomb conventional section                      ... done
Updating the Fock matrix                          ... done
Unscaling the density                             ... done

Timings:
Total time                             ...    43.904 sec

Integral generation                    ...     0.000 sec
I/O and exchange intermediate          ...    21.309 sec
Exchange Completion                    ...    19.956 sec
Coulomb equation solution              ...     0.003 sec
Coulomb second pass                    ...     2.145 sec

CalcFockMatrix - time for F was   43.913sec
CalcFockMatrix - leaving subroutine
SCF-RHF/UHF-DIIS - Time for F =   43.913
CalcEnergy - Entering Routine
CalcEnergy - Individual Terms:
E(Nuc)       =   1547.155184059
E(el)        =  -2656.990979293
E(SCF)       =  -1109.835795234
<VCOSMO>     =      0.000000000
E(diel)      =      0.000000000
ESCF-<VCOSMO>=  -1109.835795234
 +E(diel)    =  -1109.835795234
<VDFET>      =      0.000000000
SCF-RHF/UHF-DIIS - Time for E =    0.002
SCF-RHF/UHF-DIIS - Time for D =    0.143
CalcDensityMatrix - entering subroutine
CalcDensityMatrix - finished initialization
CalcDensityMatrix - entering BuildDensity
CalcDensityMatrix - HOMO[0] = 79
CalcDensityMatrix - leaving BuildDensity
CalcDensityMatrix - entering damping
CalcDensityMatrix - leaving damping
CalcDensityMatrix - entering RMS density
CalcDensityMatrix - leaving RMS density
CalcDensityMatrix - Total time =    0.018
CalcDensityMatrix - leaving subroutine
SCF-RHF/UHF-DIIS - Time for Dens =    0.018

                         ----------------------------
                         !        ITERATION     1   !
                         ----------------------------
   Total Energy        :   -1109.835795234044 Eh
   Energy Change       :      -0.279721536759 Eh
   MAX-DP              :       0.017838022807
   RMS-DP              :       0.000263772390
   Actual Damping      :       0.8000

SCF-RHF/UHF-DIIS - Total time for iteration =   44.095

op=0 irreps int iter   2: 0 0 0 0 0 0 0 0 0 0 0 0 0 0 0 0 0 0 0 0 0 0 0 0 0 0 0 0 0 0 0 0 0 0 0 0 0 0 0 0 0 0 0 0 0 0 0 0 0 0 0 0 0 0 0 0 0 0 0 0 0 0 0 0 0 0 0 0 0 0 0 0 0 0 0 0 0 0 0 0 0 0 0 0 0 0 0 0 0 0 0 0 0 0 0 0 0 0 0 0 0 0 0 0 0 0 0 0 0 0 0 0 0 0 0 0 0 0 0 0 0 0 0 0 0 0 0 0 0 0 0 0 0 0 0 0 0 0 0 0 0 0 0 0 0 0 0 0 0 0 0 0 0 0 0 0 0 0 0 0 0 0 0 0 0 0 0 0 0 0 0 0 0 0 0 0 0 0 0 0 0 0 0 0 0 0 0 0 0 0 0 0 0 0 0 0 0 0 0 0 0 0 0 0 0 0 0 0 0 0 0 0 0 0 0 0 0 0 0 0 0 0 0 0 0 0 0 0 0 0 0 0 0 0 0 0 0 0 0 0 0 0 0 0 0 0 0 0 0 0 0 0 0 0 0 0 0 0 0 0 0 0 0 0 0 0 0 0 0 0 0 0 0 0 0 0 0 0 0 0 0 0 0 0 0 0 0 0 0 0 0 0 0 0 0 0 0 0 0 0 0 0 0 0 0 0 0 0 0 0 0 0 0 0 0 0 0 0 0 0 0 0 0 0 0 0 0 0 0 0 0 0 0 0 0 0 0 0 0 0 0 0 0 0 0 0 0 0 0 0 0 0 0 0 0 0 0 0 0 0 0 0 0 0 0 0 0 0 0 0 0 0 0 0 0 0 0 0 0 0 0 0 0 0 0 0 0 0 0 0 0 0 0 0 0 0 0 0 0 0 0 0 0 0 0 0 0 0 0 0 0 0 0 0 0 0 0 0 0 0 0 0 0 0 0 0 0 0 0 0 0 0 0 0 0 0 0 0 0 0 0 0 0 0 0 0 0 0 0 0 0 0 0 0 0 0 0 0 0 0 0 0 0 0 0 0 0 0 0 0 0 0 0 0 0 0 0 0 0 0 0 0 0 0 0 0 0 0 0 0 0 0 0 0 0 0 0 0 0 0 0 0 0 0 0 0 0 0 0 0 0 0 0 0 0 0 0 0 0 0 0 0 0 0 0 0 0 0 0 0 0 0 0 0 0 0 0 0 0 0 0 0 0 0 0 0 0 0 0 0 0 0 0 0 0 0 0 0 0 0 0 0 0 0 0 0 0 0 0 0 0 0 0 0 0 0 0 0 0 0 0 0 0 0 0 0 0 0 0 0 0 0 0 0 0 0 0 0 0 0 0 0 0 0 0 0 0 0 0 0 0 0 0 0 0 0 0 0 0 0 0 0 0 0 0 0 0 0 0 0 0 0 0 0 0 0 0 0 0 0 0 0 0 0 0 0 0 0 0 0 0 0 0 0 0 0 0 0 0 0 0 0 0 0 0 0 0 0 0 0 0 0 0 0 0 0 0 0 0 0 0 0 0 0 0 0 0 0 0 0 0 0 0 0 0 0 0 0 0 0 0 0 0 0 0 0 0 0 0 0 0 0 0 0 0 0 0 0 0 0 0 0 0 0 0 0 0 0 0 0 0 0 0 0 0 0 0 0 0 0 0 0 0 0 0 0 0 0 0 0 0 0 0 
CalcFockMatrix - entering subroutine
Initializing the integral list                    ... done
Getting Cholesky decomposed V-matrix              ... done
Scaling the total density                         ... done
Batch   0: i=  0.. 79
  Making batch data          ... done
  Making IBUFF               ... done
  Entering conventional      ... 
  Getting memory             ... done
  AO-Batch   0: k=   0-1902
  Reading                    ... done
  Coulomb                    ... done
  Exchange                   ... done
  Conventional AO part done
  Entering exchange          ... done
Getting  inverse V matrix                         ... Solving linear equations                          ... done
Making TSCREEN                                    ... done
Coulomb conventional section                      ... done
Updating the Fock matrix                          ... done
Unscaling the density                             ... done

Timings:
Total time                             ...    43.898 sec

Integral generation                    ...     0.000 sec
I/O and exchange intermediate          ...    21.311 sec
Exchange Completion                    ...    19.946 sec
Coulomb equation solution              ...     0.003 sec
Coulomb second pass                    ...     2.144 sec

CalcFockMatrix - time for F was   43.908sec
CalcFockMatrix - leaving subroutine
SCF-RHF/UHF-DIIS - Time for F =   43.908
CalcEnergy - Entering Routine
CalcEnergy - Individual Terms:
E(Nuc)       =   1547.155184059
E(el)        =  -2657.228271408
E(SCF)       =  -1110.073087349
<VCOSMO>     =      0.000000000
E(diel)      =      0.000000000
ESCF-<VCOSMO>=  -1110.073087349
 +E(diel)    =  -1110.073087349
<VDFET>      =      0.000000000
SCF-RHF/UHF-DIIS - Time for E =    0.002
SCF-RHF/UHF-DIIS - Time for D =    0.144
CalcDensityMatrix - entering subroutine
CalcDensityMatrix - finished initialization
CalcDensityMatrix - entering BuildDensity
CalcDensityMatrix - HOMO[0] = 79
CalcDensityMatrix - leaving BuildDensity
CalcDensityMatrix - entering damping
CalcDensityMatrix - leaving damping
CalcDensityMatrix - entering RMS density
CalcDensityMatrix - leaving RMS density
CalcDensityMatrix - Total time =    0.018
CalcDensityMatrix - leaving subroutine
SCF-RHF/UHF-DIIS - Time for Dens =    0.018

                         ----------------------------
                         !        ITERATION     2   !
                         ----------------------------
   Total Energy        :   -1110.073087349354 Eh
   Energy Change       :      -0.237292115310 Eh
   MAX-DP              :       0.032621498381
   RMS-DP              :       0.000434003050
   Actual Damping      :       0.6000

SCF-RHF/UHF-DIIS - Total time for iteration =   44.091

op=0 irreps int iter   3: 0 0 0 0 0 0 0 0 0 0 0 0 0 0 0 0 0 0 0 0 0 0 0 0 0 0 0 0 0 0 0 0 0 0 0 0 0 0 0 0 0 0 0 0 0 0 0 0 0 0 0 0 0 0 0 0 0 0 0 0 0 0 0 0 0 0 0 0 0 0 0 0 0 0 0 0 0 0 0 0 0 0 0 0 0 0 0 0 0 0 0 0 0 0 0 0 0 0 0 0 0 0 0 0 0 0 0 0 0 0 0 0 0 0 0 0 0 0 0 0 0 0 0 0 0 0 0 0 0 0 0 0 0 0 0 0 0 0 0 0 0 0 0 0 0 0 0 0 0 0 0 0 0 0 0 0 0 0 0 0 0 0 0 0 0 0 0 0 0 0 0 0 0 0 0 0 0 0 0 0 0 0 0 0 0 0 0 0 0 0 0 0 0 0 0 0 0 0 0 0 0 0 0 0 0 0 0 0 0 0 0 0 0 0 0 0 0 0 0 0 0 0 0 0 0 0 0 0 0 0 0 0 0 0 0 0 0 0 0 0 0 0 0 0 0 0 0 0 0 0 0 0 0 0 0 0 0 0 0 0 0 0 0 0 0 0 0 0 0 0 0 0 0 0 0 0 0 0 0 0 0 0 0 0 0 0 0 0 0 0 0 0 0 0 0 0 0 0 0 0 0 0 0 0 0 0 0 0 0 0 0 0 0 0 0 0 0 0 0 0 0 0 0 0 0 0 0 0 0 0 0 0 0 0 0 0 0 0 0 0 0 0 0 0 0 0 0 0 0 0 0 0 0 0 0 0 0 0 0 0 0 0 0 0 0 0 0 0 0 0 0 0 0 0 0 0 0 0 0 0 0 0 0 0 0 0 0 0 0 0 0 0 0 0 0 0 0 0 0 0 0 0 0 0 0 0 0 0 0 0 0 0 0 0 0 0 0 0 0 0 0 0 0 0 0 0 0 0 0 0 0 0 0 0 0 0 0 0 0 0 0 0 0 0 0 0 0 0 0 0 0 0 0 0 0 0 0 0 0 0 0 0 0 0 0 0 0 0 0 0 0 0 0 0 0 0 0 0 0 0 0 0 0 0 0 0 0 0 0 0 0 0 0 0 0 0 0 0 0 0 0 0 0 0 0 0 0 0 0 0 0 0 0 0 0 0 0 0 0 0 0 0 0 0 0 0 0 0 0 0 0 0 0 0 0 0 0 0 0 0 0 0 0 0 0 0 0 0 0 0 0 0 0 0 0 0 0 0 0 0 0 0 0 0 0 0 0 0 0 0 0 0 0 0 0 0 0 0 0 0 0 0 0 0 0 0 0 0 0 0 0 0 0 0 0 0 0 0 0 0 0 0 0 0 0 0 0 0 0 0 0 0 0 0 0 0 0 0 0 0 0 0 0 0 0 0 0 0 0 0 0 0 0 0 0 0 0 0 0 0 0 0 0 0 0 0 0 0 0 0 0 0 0 0 0 0 0 0 0 0 0 0 0 0 0 0 0 0 0 0 0 0 0 0 0 0 0 0 0 0 0 0 0 0 0 0 0 0 0 0 0 0 0 0 0 0 0 0 0 0 0 0 0 0 0 0 0 0 0 0 0 0 0 0 0 0 0 0 0 0 0 0 0 0 0 0 0 0 0 0 0 0 0 0 0 0 0 0 0 0 0 0 0 0 0 0 0 0 0 0 0 0 0 
CalcFockMatrix - entering subroutine
Initializing the integral list                    ... done
Getting Cholesky decomposed V-matrix              ... done
Scaling the total density                         ... done
Batch   0: i=  0.. 79
  Making batch data          ... done
  Making IBUFF               ... done
  Entering conventional      ... 
  Getting memory             ... done
  AO-Batch   0: k=   0-1902
  Reading                    ... done
  Coulomb                    ... done
  Exchange                   ... done
  Conventional AO part done
  Entering exchange          ... done
Getting  inverse V matrix                         ... Solving linear equations                          ... done
Making TSCREEN                                    ... done
Coulomb conventional section                      ... done
Updating the Fock matrix                          ... done
Unscaling the density                             ... done

Timings:
Total time                             ...    43.907 sec

Integral generation                    ...     0.000 sec
I/O and exchange intermediate          ...    21.284 sec
Exchange Completion                    ...    19.963 sec
Coulomb equation solution              ...     0.003 sec
Coulomb second pass                    ...     2.161 sec

CalcFockMatrix - time for F was   43.919sec
CalcFockMatrix - leaving subroutine
SCF-RHF/UHF-DIIS - Time for F =   43.919
CalcEnergy - Entering Routine
CalcEnergy - Individual Terms:
E(Nuc)       =   1547.155184059
E(el)        =  -2657.512759908
E(SCF)       =  -1110.357575850
<VCOSMO>     =      0.000000000
E(diel)      =      0.000000000
ESCF-<VCOSMO>=  -1110.357575850
 +E(diel)    =  -1110.357575850
<VDFET>      =      0.000000000
SCF-RHF/UHF-DIIS - Time for E =    0.002
SCF-RHF/UHF-DIIS - Time for D =    0.144
CalcDensityMatrix - entering subroutine
CalcDensityMatrix - finished initialization
CalcDensityMatrix - entering BuildDensity
CalcDensityMatrix - HOMO[0] = 79
CalcDensityMatrix - leaving BuildDensity
CalcDensityMatrix - entering damping
CalcDensityMatrix - leaving damping
CalcDensityMatrix - entering RMS density
CalcDensityMatrix - leaving RMS density
CalcDensityMatrix - Total time =    0.018
CalcDensityMatrix - leaving subroutine
SCF-RHF/UHF-DIIS - Time for Dens =    0.018

                         ----------------------------
                         !        ITERATION     3   !
                         ----------------------------
   Total Energy        :   -1110.357575849785 Eh
   Energy Change       :      -0.284488500431 Eh
   MAX-DP              :       0.049792089472
   RMS-DP              :       0.000690053696
   Actual Damping      :       0.0000

SCF-RHF/UHF-DIIS - Total time for iteration =   44.103

op=0 irreps int iter   4: 0 0 0 0 0 0 0 0 0 0 0 0 0 0 0 0 0 0 0 0 0 0 0 0 0 0 0 0 0 0 0 0 0 0 0 0 0 0 0 0 0 0 0 0 0 0 0 0 0 0 0 0 0 0 0 0 0 0 0 0 0 0 0 0 0 0 0 0 0 0 0 0 0 0 0 0 0 0 0 0 0 0 0 0 0 0 0 0 0 0 0 0 0 0 0 0 0 0 0 0 0 0 0 0 0 0 0 0 0 0 0 0 0 0 0 0 0 0 0 0 0 0 0 0 0 0 0 0 0 0 0 0 0 0 0 0 0 0 0 0 0 0 0 0 0 0 0 0 0 0 0 0 0 0 0 0 0 0 0 0 0 0 0 0 0 0 0 0 0 0 0 0 0 0 0 0 0 0 0 0 0 0 0 0 0 0 0 0 0 0 0 0 0 0 0 0 0 0 0 0 0 0 0 0 0 0 0 0 0 0 0 0 0 0 0 0 0 0 0 0 0 0 0 0 0 0 0 0 0 0 0 0 0 0 0 0 0 0 0 0 0 0 0 0 0 0 0 0 0 0 0 0 0 0 0 0 0 0 0 0 0 0 0 0 0 0 0 0 0 0 0 0 0 0 0 0 0 0 0 0 0 0 0 0 0 0 0 0 0 0 0 0 0 0 0 0 0 0 0 0 0 0 0 0 0 0 0 0 0 0 0 0 0 0 0 0 0 0 0 0 0 0 0 0 0 0 0 0 0 0 0 0 0 0 0 0 0 0 0 0 0 0 0 0 0 0 0 0 0 0 0 0 0 0 0 0 0 0 0 0 0 0 0 0 0 0 0 0 0 0 0 0 0 0 0 0 0 0 0 0 0 0 0 0 0 0 0 0 0 0 0 0 0 0 0 0 0 0 0 0 0 0 0 0 0 0 0 0 0 0 0 0 0 0 0 0 0 0 0 0 0 0 0 0 0 0 0 0 0 0 0 0 0 0 0 0 0 0 0 0 0 0 0 0 0 0 0 0 0 0 0 0 0 0 0 0 0 0 0 0 0 0 0 0 0 0 0 0 0 0 0 0 0 0 0 0 0 0 0 0 0 0 0 0 0 0 0 0 0 0 0 0 0 0 0 0 0 0 0 0 0 0 0 0 0 0 0 0 0 0 0 0 0 0 0 0 0 0 0 0 0 0 0 0 0 0 0 0 0 0 0 0 0 0 0 0 0 0 0 0 0 0 0 0 0 0 0 0 0 0 0 0 0 0 0 0 0 0 0 0 0 0 0 0 0 0 0 0 0 0 0 0 0 0 0 0 0 0 0 0 0 0 0 0 0 0 0 0 0 0 0 0 0 0 0 0 0 0 0 0 0 0 0 0 0 0 0 0 0 0 0 0 0 0 0 0 0 0 0 0 0 0 0 0 0 0 0 0 0 0 0 0 0 0 0 0 0 0 0 0 0 0 0 0 0 0 0 0 0 0 0 0 0 0 0 0 0 0 0 0 0 0 0 0 0 0 0 0 0 0 0 0 0 0 0 0 0 0 0 0 0 0 0 0 0 0 0 0 0 0 0 0 0 0 0 0 0 0 0 0 0 0 0 0 0 0 0 0 0 0 0 0 0 0 0 0 0 0 0 0 0 0 0 0 0 0 0 0 0 0 0 0 0 0 0 0 0 0 0 0 0 0 0 0 0 0 0 0 0 0 0 0 0 
CalcFockMatrix - entering subroutine
Initializing the integral list                    ... done
Getting Cholesky decomposed V-matrix              ... done
Scaling the total density                         ... done
Batch   0: i=  0.. 79
  Making batch data          ... done
  Making IBUFF               ... done
  Entering conventional      ... 
  Getting memory             ... done
  AO-Batch   0: k=   0-1902
  Reading                    ... done
  Coulomb                    ... done
  Exchange                   ... done
  Conventional AO part done
  Entering exchange          ... done
Getting  inverse V matrix                         ... Solving linear equations                          ... done
Making TSCREEN                                    ... done
Coulomb conventional section                      ... done
Updating the Fock matrix                          ... done
Unscaling the density                             ... done

Timings:
Total time                             ...    43.931 sec

Integral generation                    ...     0.000 sec
I/O and exchange intermediate          ...    21.319 sec
Exchange Completion                    ...    19.973 sec
Coulomb equation solution              ...     0.003 sec
Coulomb second pass                    ...     2.142 sec

CalcFockMatrix - time for F was   43.940sec
CalcFockMatrix - leaving subroutine
SCF-RHF/UHF-DIIS - Time for F =   43.940
CalcEnergy - Entering Routine
CalcEnergy - Individual Terms:
E(Nuc)       =   1547.155184059
E(el)        =  -2657.694534345
E(SCF)       =  -1110.539350286
<VCOSMO>     =      0.000000000
E(diel)      =      0.000000000
ESCF-<VCOSMO>=  -1110.539350286
 +E(diel)    =  -1110.539350286
<VDFET>      =      0.000000000
SCF-RHF/UHF-DIIS - Time for E =    0.002
SCF-RHF/UHF-DIIS - Time for D =    0.145
CalcDensityMatrix - entering subroutine
CalcDensityMatrix - finished initialization
CalcDensityMatrix - entering BuildDensity
CalcDensityMatrix - HOMO[0] = 79
CalcDensityMatrix - leaving BuildDensity
CalcDensityMatrix - entering damping
CalcDensityMatrix - leaving damping
CalcDensityMatrix - entering RMS density
CalcDensityMatrix - leaving RMS density
CalcDensityMatrix - Total time =    0.018
CalcDensityMatrix - leaving subroutine
SCF-RHF/UHF-DIIS - Time for Dens =    0.018

                         ----------------------------
                         !        ITERATION     4   !
                         ----------------------------
   Total Energy        :   -1110.539350286324 Eh
   Energy Change       :      -0.181774436538 Eh
   MAX-DP              :       0.003517389239
   RMS-DP              :       0.000049569735
   Actual Damping      :       0.0000

SCF-RHF/UHF-DIIS - Total time for iteration =   44.124

op=0 irreps int iter   5: 0 0 0 0 0 0 0 0 0 0 0 0 0 0 0 0 0 0 0 0 0 0 0 0 0 0 0 0 0 0 0 0 0 0 0 0 0 0 0 0 0 0 0 0 0 0 0 0 0 0 0 0 0 0 0 0 0 0 0 0 0 0 0 0 0 0 0 0 0 0 0 0 0 0 0 0 0 0 0 0 0 0 0 0 0 0 0 0 0 0 0 0 0 0 0 0 0 0 0 0 0 0 0 0 0 0 0 0 0 0 0 0 0 0 0 0 0 0 0 0 0 0 0 0 0 0 0 0 0 0 0 0 0 0 0 0 0 0 0 0 0 0 0 0 0 0 0 0 0 0 0 0 0 0 0 0 0 0 0 0 0 0 0 0 0 0 0 0 0 0 0 0 0 0 0 0 0 0 0 0 0 0 0 0 0 0 0 0 0 0 0 0 0 0 0 0 0 0 0 0 0 0 0 0 0 0 0 0 0 0 0 0 0 0 0 0 0 0 0 0 0 0 0 0 0 0 0 0 0 0 0 0 0 0 0 0 0 0 0 0 0 0 0 0 0 0 0 0 0 0 0 0 0 0 0 0 0 0 0 0 0 0 0 0 0 0 0 0 0 0 0 0 0 0 0 0 0 0 0 0 0 0 0 0 0 0 0 0 0 0 0 0 0 0 0 0 0 0 0 0 0 0 0 0 0 0 0 0 0 0 0 0 0 0 0 0 0 0 0 0 0 0 0 0 0 0 0 0 0 0 0 0 0 0 0 0 0 0 0 0 0 0 0 0 0 0 0 0 0 0 0 0 0 0 0 0 0 0 0 0 0 0 0 0 0 0 0 0 0 0 0 0 0 0 0 0 0 0 0 0 0 0 0 0 0 0 0 0 0 0 0 0 0 0 0 0 0 0 0 0 0 0 0 0 0 0 0 0 0 0 0 0 0 0 0 0 0 0 0 0 0 0 0 0 0 0 0 0 0 0 0 0 0 0 0 0 0 0 0 0 0 0 0 0 0 0 0 0 0 0 0 0 0 0 0 0 0 0 0 0 0 0 0 0 0 0 0 0 0 0 0 0 0 0 0 0 0 0 0 0 0 0 0 0 0 0 0 0 0 0 0 0 0 0 0 0 0 0 0 0 0 0 0 0 0 0 0 0 0 0 0 0 0 0 0 0 0 0 0 0 0 0 0 0 0 0 0 0 0 0 0 0 0 0 0 0 0 0 0 0 0 0 0 0 0 0 0 0 0 0 0 0 0 0 0 0 0 0 0 0 0 0 0 0 0 0 0 0 0 0 0 0 0 0 0 0 0 0 0 0 0 0 0 0 0 0 0 0 0 0 0 0 0 0 0 0 0 0 0 0 0 0 0 0 0 0 0 0 0 0 0 0 0 0 0 0 0 0 0 0 0 0 0 0 0 0 0 0 0 0 0 0 0 0 0 0 0 0 0 0 0 0 0 0 0 0 0 0 0 0 0 0 0 0 0 0 0 0 0 0 0 0 0 0 0 0 0 0 0 0 0 0 0 0 0 0 0 0 0 0 0 0 0 0 0 0 0 0 0 0 0 0 0 0 0 0 0 0 0 0 0 0 0 0 0 0 0 0 0 0 0 0 0 0 0 0 0 0 0 0 0 0 0 0 0 0 0 0 0 0 0 0 0 0 0 0 0 0 0 0 0 0 0 0 0 0 0 0 0 0 0 0 0 
CalcFockMatrix - entering subroutine
Initializing the integral list                    ... done
Getting Cholesky decomposed V-matrix              ... done
Scaling the total density                         ... done
Batch   0: i=  0.. 79
  Making batch data          ... done
  Making IBUFF               ... done
  Entering conventional      ... 
  Getting memory             ... done
  AO-Batch   0: k=   0-1902
  Reading                    ... done
  Coulomb                    ... done
  Exchange                   ... done
  Conventional AO part done
  Entering exchange          ... done
Getting  inverse V matrix                         ... Solving linear equations                          ... done
Making TSCREEN                                    ... done
Coulomb conventional section                      ... done
Updating the Fock matrix                          ... done
Unscaling the density                             ... done

Timings:
Total time                             ...    43.905 sec

Integral generation                    ...     0.000 sec
I/O and exchange intermediate          ...    21.284 sec
Exchange Completion                    ...    19.965 sec
Coulomb equation solution              ...     0.003 sec
Coulomb second pass                    ...     2.158 sec

CalcFockMatrix - time for F was   43.915sec
CalcFockMatrix - leaving subroutine
SCF-RHF/UHF-DIIS - Time for F =   43.915
CalcEnergy - Entering Routine
CalcEnergy - Individual Terms:
E(Nuc)       =   1547.155184059
E(el)        =  -2657.695300818
E(SCF)       =  -1110.540116760
<VCOSMO>     =      0.000000000
E(diel)      =      0.000000000
ESCF-<VCOSMO>=  -1110.540116760
 +E(diel)    =  -1110.540116760
<VDFET>      =      0.000000000
SCF-RHF/UHF-DIIS - Time for E =    0.002
SCF-RHF/UHF-DIIS - Time for D =    0.146
CalcDensityMatrix - entering subroutine
CalcDensityMatrix - finished initialization
CalcDensityMatrix - entering BuildDensity
CalcDensityMatrix - HOMO[0] = 79
CalcDensityMatrix - leaving BuildDensity
CalcDensityMatrix - entering damping
CalcDensityMatrix - leaving damping
CalcDensityMatrix - entering RMS density
CalcDensityMatrix - leaving RMS density
CalcDensityMatrix - Total time =    0.018
CalcDensityMatrix - leaving subroutine
SCF-RHF/UHF-DIIS - Time for Dens =    0.018

                         ----------------------------
                         !        ITERATION     5   !
                         ----------------------------
   Total Energy        :   -1110.540116759658 Eh
   Energy Change       :      -0.000766473334 Eh
   MAX-DP              :       0.002582212999
   RMS-DP              :       0.000040297931
   Actual Damping      :       0.0000

SCF-RHF/UHF-DIIS - Total time for iteration =   44.100

op=0 irreps int iter   6: 0 0 0 0 0 0 0 0 0 0 0 0 0 0 0 0 0 0 0 0 0 0 0 0 0 0 0 0 0 0 0 0 0 0 0 0 0 0 0 0 0 0 0 0 0 0 0 0 0 0 0 0 0 0 0 0 0 0 0 0 0 0 0 0 0 0 0 0 0 0 0 0 0 0 0 0 0 0 0 0 0 0 0 0 0 0 0 0 0 0 0 0 0 0 0 0 0 0 0 0 0 0 0 0 0 0 0 0 0 0 0 0 0 0 0 0 0 0 0 0 0 0 0 0 0 0 0 0 0 0 0 0 0 0 0 0 0 0 0 0 0 0 0 0 0 0 0 0 0 0 0 0 0 0 0 0 0 0 0 0 0 0 0 0 0 0 0 0 0 0 0 0 0 0 0 0 0 0 0 0 0 0 0 0 0 0 0 0 0 0 0 0 0 0 0 0 0 0 0 0 0 0 0 0 0 0 0 0 0 0 0 0 0 0 0 0 0 0 0 0 0 0 0 0 0 0 0 0 0 0 0 0 0 0 0 0 0 0 0 0 0 0 0 0 0 0 0 0 0 0 0 0 0 0 0 0 0 0 0 0 0 0 0 0 0 0 0 0 0 0 0 0 0 0 0 0 0 0 0 0 0 0 0 0 0 0 0 0 0 0 0 0 0 0 0 0 0 0 0 0 0 0 0 0 0 0 0 0 0 0 0 0 0 0 0 0 0 0 0 0 0 0 0 0 0 0 0 0 0 0 0 0 0 0 0 0 0 0 0 0 0 0 0 0 0 0 0 0 0 0 0 0 0 0 0 0 0 0 0 0 0 0 0 0 0 0 0 0 0 0 0 0 0 0 0 0 0 0 0 0 0 0 0 0 0 0 0 0 0 0 0 0 0 0 0 0 0 0 0 0 0 0 0 0 0 0 0 0 0 0 0 0 0 0 0 0 0 0 0 0 0 0 0 0 0 0 0 0 0 0 0 0 0 0 0 0 0 0 0 0 0 0 0 0 0 0 0 0 0 0 0 0 0 0 0 0 0 0 0 0 0 0 0 0 0 0 0 0 0 0 0 0 0 0 0 0 0 0 0 0 0 0 0 0 0 0 0 0 0 0 0 0 0 0 0 0 0 0 0 0 0 0 0 0 0 0 0 0 0 0 0 0 0 0 0 0 0 0 0 0 0 0 0 0 0 0 0 0 0 0 0 0 0 0 0 0 0 0 0 0 0 0 0 0 0 0 0 0 0 0 0 0 0 0 0 0 0 0 0 0 0 0 0 0 0 0 0 0 0 0 0 0 0 0 0 0 0 0 0 0 0 0 0 0 0 0 0 0 0 0 0 0 0 0 0 0 0 0 0 0 0 0 0 0 0 0 0 0 0 0 0 0 0 0 0 0 0 0 0 0 0 0 0 0 0 0 0 0 0 0 0 0 0 0 0 0 0 0 0 0 0 0 0 0 0 0 0 0 0 0 0 0 0 0 0 0 0 0 0 0 0 0 0 0 0 0 0 0 0 0 0 0 0 0 0 0 0 0 0 0 0 0 0 0 0 0 0 0 0 0 0 0 0 0 0 0 0 0 0 0 0 0 0 0 0 0 0 0 0 0 0 0 0 0 0 0 0 0 0 0 0 0 0 0 0 0 0 0 0 0 0 0 0 0 0 0 0 0 0 0 0 0 0 0 0 0 0 0 0 0 0 0 0 
CalcFockMatrix - entering subroutine
Initializing the integral list                    ... done
Getting Cholesky decomposed V-matrix              ... done
Scaling the total density                         ... done
Batch   0: i=  0.. 79
  Making batch data          ... done
  Making IBUFF               ... done
  Entering conventional      ... 
  Getting memory             ... done
  AO-Batch   0: k=   0-1902
  Reading                    ... done
  Coulomb                    ... done
  Exchange                   ... done
  Conventional AO part done
  Entering exchange          ... done
Getting  inverse V matrix                         ... Solving linear equations                          ... done
Making TSCREEN                                    ... done
Coulomb conventional section                      ... done
Updating the Fock matrix                          ... done
Unscaling the density                             ... done

Timings:
Total time                             ...    44.020 sec

Integral generation                    ...     0.000 sec
I/O and exchange intermediate          ...    21.400 sec
Exchange Completion                    ...    19.962 sec
Coulomb equation solution              ...     0.003 sec
Coulomb second pass                    ...     2.161 sec

CalcFockMatrix - time for F was   44.030sec
CalcFockMatrix - leaving subroutine
SCF-RHF/UHF-DIIS - Time for F =   44.031
CalcEnergy - Entering Routine
CalcEnergy - Individual Terms:
E(Nuc)       =   1547.155184059
E(el)        =  -2657.695438912
E(SCF)       =  -1110.540254854
<VCOSMO>     =      0.000000000
E(diel)      =      0.000000000
ESCF-<VCOSMO>=  -1110.540254854
 +E(diel)    =  -1110.540254854
<VDFET>      =      0.000000000
SCF-RHF/UHF-DIIS - Time for E =    0.001
SCF-RHF/UHF-DIIS - Time for D =    0.146
CalcDensityMatrix - entering subroutine
CalcDensityMatrix - finished initialization
CalcDensityMatrix - entering BuildDensity
CalcDensityMatrix - HOMO[0] = 79
CalcDensityMatrix - leaving BuildDensity
CalcDensityMatrix - entering damping
CalcDensityMatrix - leaving damping
CalcDensityMatrix - entering RMS density
CalcDensityMatrix - leaving RMS density
CalcDensityMatrix - Total time =    0.018
CalcDensityMatrix - leaving subroutine
SCF-RHF/UHF-DIIS - Time for Dens =    0.018

                         ----------------------------
                         !        ITERATION     6   !
                         ----------------------------
   Total Energy        :   -1110.540254853777 Eh
   Energy Change       :      -0.000138094120 Eh
   MAX-DP              :       0.000657291574
   RMS-DP              :       0.000010545440
   Actual Damping      :       0.0000

SCF-RHF/UHF-DIIS - Total time for iteration =   44.215

op=0 irreps int iter   7: 0 0 0 0 0 0 0 0 0 0 0 0 0 0 0 0 0 0 0 0 0 0 0 0 0 0 0 0 0 0 0 0 0 0 0 0 0 0 0 0 0 0 0 0 0 0 0 0 0 0 0 0 0 0 0 0 0 0 0 0 0 0 0 0 0 0 0 0 0 0 0 0 0 0 0 0 0 0 0 0 0 0 0 0 0 0 0 0 0 0 0 0 0 0 0 0 0 0 0 0 0 0 0 0 0 0 0 0 0 0 0 0 0 0 0 0 0 0 0 0 0 0 0 0 0 0 0 0 0 0 0 0 0 0 0 0 0 0 0 0 0 0 0 0 0 0 0 0 0 0 0 0 0 0 0 0 0 0 0 0 0 0 0 0 0 0 0 0 0 0 0 0 0 0 0 0 0 0 0 0 0 0 0 0 0 0 0 0 0 0 0 0 0 0 0 0 0 0 0 0 0 0 0 0 0 0 0 0 0 0 0 0 0 0 0 0 0 0 0 0 0 0 0 0 0 0 0 0 0 0 0 0 0 0 0 0 0 0 0 0 0 0 0 0 0 0 0 0 0 0 0 0 0 0 0 0 0 0 0 0 0 0 0 0 0 0 0 0 0 0 0 0 0 0 0 0 0 0 0 0 0 0 0 0 0 0 0 0 0 0 0 0 0 0 0 0 0 0 0 0 0 0 0 0 0 0 0 0 0 0 0 0 0 0 0 0 0 0 0 0 0 0 0 0 0 0 0 0 0 0 0 0 0 0 0 0 0 0 0 0 0 0 0 0 0 0 0 0 0 0 0 0 0 0 0 0 0 0 0 0 0 0 0 0 0 0 0 0 0 0 0 0 0 0 0 0 0 0 0 0 0 0 0 0 0 0 0 0 0 0 0 0 0 0 0 0 0 0 0 0 0 0 0 0 0 0 0 0 0 0 0 0 0 0 0 0 0 0 0 0 0 0 0 0 0 0 0 0 0 0 0 0 0 0 0 0 0 0 0 0 0 0 0 0 0 0 0 0 0 0 0 0 0 0 0 0 0 0 0 0 0 0 0 0 0 0 0 0 0 0 0 0 0 0 0 0 0 0 0 0 0 0 0 0 0 0 0 0 0 0 0 0 0 0 0 0 0 0 0 0 0 0 0 0 0 0 0 0 0 0 0 0 0 0 0 0 0 0 0 0 0 0 0 0 0 0 0 0 0 0 0 0 0 0 0 0 0 0 0 0 0 0 0 0 0 0 0 0 0 0 0 0 0 0 0 0 0 0 0 0 0 0 0 0 0 0 0 0 0 0 0 0 0 0 0 0 0 0 0 0 0 0 0 0 0 0 0 0 0 0 0 0 0 0 0 0 0 0 0 0 0 0 0 0 0 0 0 0 0 0 0 0 0 0 0 0 0 0 0 0 0 0 0 0 0 0 0 0 0 0 0 0 0 0 0 0 0 0 0 0 0 0 0 0 0 0 0 0 0 0 0 0 0 0 0 0 0 0 0 0 0 0 0 0 0 0 0 0 0 0 0 0 0 0 0 0 0 0 0 0 0 0 0 0 0 0 0 0 0 0 0 0 0 0 0 0 0 0 0 0 0 0 0 0 0 0 0 0 0 0 0 0 0 0 0 0 0 0 0 0 0 0 0 0 0 0 0 0 0 0 0 0 0 0 0 0 0 0 0 0 0 0 0 0 0 0 0 0 0 0 0 0 0 
CalcFockMatrix - entering subroutine
Initializing the integral list                    ... done
Getting Cholesky decomposed V-matrix              ... done
Scaling the total density                         ... done
Batch   0: i=  0.. 79
  Making batch data          ... done
  Making IBUFF               ... done
  Entering conventional      ... 
  Getting memory             ... done
  AO-Batch   0: k=   0-1902
  Reading                    ... done
  Coulomb                    ... done
  Exchange                   ... done
  Conventional AO part done
  Entering exchange          ... done
Getting  inverse V matrix                         ... Solving linear equations                          ... done
Making TSCREEN                                    ... done
Coulomb conventional section                      ... done
Updating the Fock matrix                          ... done
Unscaling the density                             ... done

Timings:
Total time                             ...    43.896 sec

Integral generation                    ...     0.000 sec
I/O and exchange intermediate          ...    21.287 sec
Exchange Completion                    ...    19.954 sec
Coulomb equation solution              ...     0.003 sec
Coulomb second pass                    ...     2.158 sec

CalcFockMatrix - time for F was   43.906sec
CalcFockMatrix - leaving subroutine
SCF-RHF/UHF-DIIS - Time for F =   43.906
CalcEnergy - Entering Routine
CalcEnergy - Individual Terms:
E(Nuc)       =   1547.155184059
E(el)        =  -2657.695452546
E(SCF)       =  -1110.540268488
<VCOSMO>     =      0.000000000
E(diel)      =      0.000000000
ESCF-<VCOSMO>=  -1110.540268488
 +E(diel)    =  -1110.540268488
<VDFET>      =      0.000000000
SCF-RHF/UHF-DIIS - Time for E =    0.001
SCF-RHF/UHF-DIIS - Time for D =    0.145
CalcDensityMatrix - entering subroutine
CalcDensityMatrix - finished initialization
CalcDensityMatrix - entering BuildDensity
CalcDensityMatrix - HOMO[0] = 79
CalcDensityMatrix - leaving BuildDensity
CalcDensityMatrix - entering damping
CalcDensityMatrix - leaving damping
CalcDensityMatrix - entering RMS density
CalcDensityMatrix - leaving RMS density
CalcDensityMatrix - Total time =    0.018
CalcDensityMatrix - leaving subroutine
SCF-RHF/UHF-DIIS - Time for Dens =    0.018

                         ----------------------------
                         !        ITERATION     7   !
                         ----------------------------
   Total Energy        :   -1110.540268487640 Eh
   Energy Change       :      -0.000013633863 Eh
   MAX-DP              :       0.000330023294
   RMS-DP              :       0.000003720401
   Actual Damping      :       0.0000

SCF-RHF/UHF-DIIS - Total time for iteration =   44.090

op=0 irreps int iter   8: 0 0 0 0 0 0 0 0 0 0 0 0 0 0 0 0 0 0 0 0 0 0 0 0 0 0 0 0 0 0 0 0 0 0 0 0 0 0 0 0 0 0 0 0 0 0 0 0 0 0 0 0 0 0 0 0 0 0 0 0 0 0 0 0 0 0 0 0 0 0 0 0 0 0 0 0 0 0 0 0 0 0 0 0 0 0 0 0 0 0 0 0 0 0 0 0 0 0 0 0 0 0 0 0 0 0 0 0 0 0 0 0 0 0 0 0 0 0 0 0 0 0 0 0 0 0 0 0 0 0 0 0 0 0 0 0 0 0 0 0 0 0 0 0 0 0 0 0 0 0 0 0 0 0 0 0 0 0 0 0 0 0 0 0 0 0 0 0 0 0 0 0 0 0 0 0 0 0 0 0 0 0 0 0 0 0 0 0 0 0 0 0 0 0 0 0 0 0 0 0 0 0 0 0 0 0 0 0 0 0 0 0 0 0 0 0 0 0 0 0 0 0 0 0 0 0 0 0 0 0 0 0 0 0 0 0 0 0 0 0 0 0 0 0 0 0 0 0 0 0 0 0 0 0 0 0 0 0 0 0 0 0 0 0 0 0 0 0 0 0 0 0 0 0 0 0 0 0 0 0 0 0 0 0 0 0 0 0 0 0 0 0 0 0 0 0 0 0 0 0 0 0 0 0 0 0 0 0 0 0 0 0 0 0 0 0 0 0 0 0 0 0 0 0 0 0 0 0 0 0 0 0 0 0 0 0 0 0 0 0 0 0 0 0 0 0 0 0 0 0 0 0 0 0 0 0 0 0 0 0 0 0 0 0 0 0 0 0 0 0 0 0 0 0 0 0 0 0 0 0 0 0 0 0 0 0 0 0 0 0 0 0 0 0 0 0 0 0 0 0 0 0 0 0 0 0 0 0 0 0 0 0 0 0 0 0 0 0 0 0 0 0 0 0 0 0 0 0 0 0 0 0 0 0 0 0 0 0 0 0 0 0 0 0 0 0 0 0 0 0 0 0 0 0 0 0 0 0 0 0 0 0 0 0 0 0 0 0 0 0 0 0 0 0 0 0 0 0 0 0 0 0 0 0 0 0 0 0 0 0 0 0 0 0 0 0 0 0 0 0 0 0 0 0 0 0 0 0 0 0 0 0 0 0 0 0 0 0 0 0 0 0 0 0 0 0 0 0 0 0 0 0 0 0 0 0 0 0 0 0 0 0 0 0 0 0 0 0 0 0 0 0 0 0 0 0 0 0 0 0 0 0 0 0 0 0 0 0 0 0 0 0 0 0 0 0 0 0 0 0 0 0 0 0 0 0 0 0 0 0 0 0 0 0 0 0 0 0 0 0 0 0 0 0 0 0 0 0 0 0 0 0 0 0 0 0 0 0 0 0 0 0 0 0 0 0 0 0 0 0 0 0 0 0 0 0 0 0 0 0 0 0 0 0 0 0 0 0 0 0 0 0 0 0 0 0 0 0 0 0 0 0 0 0 0 0 0 0 0 0 0 0 0 0 0 0 0 0 0 0 0 0 0 0 0 0 0 0 0 0 0 0 0 0 0 0 0 0 0 0 0 0 0 0 0 0 0 0 0 0 0 0 0 0 0 0 0 0 0 0 0 0 0 0 0 0 0 0 0 0 0 0 0 0 0 0 0 0 0 0 0 0 0 0 0 0 0 0 0 0 0 0 0 
CalcFockMatrix - entering subroutine
Initializing the integral list                    ... done
Getting Cholesky decomposed V-matrix              ... done
Scaling the total density                         ... done
Batch   0: i=  0.. 79
  Making batch data          ... done
  Making IBUFF               ... done
  Entering conventional      ... 
  Getting memory             ... done
  AO-Batch   0: k=   0-1902
  Reading                    ... done
  Coulomb                    ... done
  Exchange                   ... done
  Conventional AO part done
  Entering exchange          ... done
Getting  inverse V matrix                         ... Solving linear equations                          ... done
Making TSCREEN                                    ... done
Coulomb conventional section                      ... done
Updating the Fock matrix                          ... done
Unscaling the density                             ... done

Timings:
Total time                             ...    43.913 sec

Integral generation                    ...     0.000 sec
I/O and exchange intermediate          ...    21.294 sec
Exchange Completion                    ...    19.961 sec
Coulomb equation solution              ...     0.003 sec
Coulomb second pass                    ...     2.160 sec

CalcFockMatrix - time for F was   43.922sec
CalcFockMatrix - leaving subroutine
SCF-RHF/UHF-DIIS - Time for F =   43.922
CalcEnergy - Entering Routine
CalcEnergy - Individual Terms:
E(Nuc)       =   1547.155184059
E(el)        =  -2657.695454086
E(SCF)       =  -1110.540270028
<VCOSMO>     =      0.000000000
E(diel)      =      0.000000000
ESCF-<VCOSMO>=  -1110.540270028
 +E(diel)    =  -1110.540270028
<VDFET>      =      0.000000000
SCF-RHF/UHF-DIIS - Time for E =    0.001
SCF-RHF/UHF-DIIS - Time for D =    0.146
CalcDensityMatrix - entering subroutine
CalcDensityMatrix - finished initialization
CalcDensityMatrix - entering BuildDensity
CalcDensityMatrix - HOMO[0] = 79
CalcDensityMatrix - leaving BuildDensity
CalcDensityMatrix - entering damping
CalcDensityMatrix - leaving damping
CalcDensityMatrix - entering RMS density
CalcDensityMatrix - leaving RMS density
CalcDensityMatrix - Total time =    0.018
CalcDensityMatrix - leaving subroutine
SCF-RHF/UHF-DIIS - Time for Dens =    0.018

                         ----------------------------
                         !        ITERATION     8   !
                         ----------------------------
   Total Energy        :   -1110.540270027612 Eh
   Energy Change       :      -0.000001539972 Eh
   MAX-DP              :       0.000132870328
   RMS-DP              :       0.000002179360
   Actual Damping      :       0.0000

SCF-RHF/UHF-DIIS - Total time for iteration =   44.106

op=0 irreps int iter   9: 0 0 0 0 0 0 0 0 0 0 0 0 0 0 0 0 0 0 0 0 0 0 0 0 0 0 0 0 0 0 0 0 0 0 0 0 0 0 0 0 0 0 0 0 0 0 0 0 0 0 0 0 0 0 0 0 0 0 0 0 0 0 0 0 0 0 0 0 0 0 0 0 0 0 0 0 0 0 0 0 0 0 0 0 0 0 0 0 0 0 0 0 0 0 0 0 0 0 0 0 0 0 0 0 0 0 0 0 0 0 0 0 0 0 0 0 0 0 0 0 0 0 0 0 0 0 0 0 0 0 0 0 0 0 0 0 0 0 0 0 0 0 0 0 0 0 0 0 0 0 0 0 0 0 0 0 0 0 0 0 0 0 0 0 0 0 0 0 0 0 0 0 0 0 0 0 0 0 0 0 0 0 0 0 0 0 0 0 0 0 0 0 0 0 0 0 0 0 0 0 0 0 0 0 0 0 0 0 0 0 0 0 0 0 0 0 0 0 0 0 0 0 0 0 0 0 0 0 0 0 0 0 0 0 0 0 0 0 0 0 0 0 0 0 0 0 0 0 0 0 0 0 0 0 0 0 0 0 0 0 0 0 0 0 0 0 0 0 0 0 0 0 0 0 0 0 0 0 0 0 0 0 0 0 0 0 0 0 0 0 0 0 0 0 0 0 0 0 0 0 0 0 0 0 0 0 0 0 0 0 0 0 0 0 0 0 0 0 0 0 0 0 0 0 0 0 0 0 0 0 0 0 0 0 0 0 0 0 0 0 0 0 0 0 0 0 0 0 0 0 0 0 0 0 0 0 0 0 0 0 0 0 0 0 0 0 0 0 0 0 0 0 0 0 0 0 0 0 0 0 0 0 0 0 0 0 0 0 0 0 0 0 0 0 0 0 0 0 0 0 0 0 0 0 0 0 0 0 0 0 0 0 0 0 0 0 0 0 0 0 0 0 0 0 0 0 0 0 0 0 0 0 0 0 0 0 0 0 0 0 0 0 0 0 0 0 0 0 0 0 0 0 0 0 0 0 0 0 0 0 0 0 0 0 0 0 0 0 0 0 0 0 0 0 0 0 0 0 0 0 0 0 0 0 0 0 0 0 0 0 0 0 0 0 0 0 0 0 0 0 0 0 0 0 0 0 0 0 0 0 0 0 0 0 0 0 0 0 0 0 0 0 0 0 0 0 0 0 0 0 0 0 0 0 0 0 0 0 0 0 0 0 0 0 0 0 0 0 0 0 0 0 0 0 0 0 0 0 0 0 0 0 0 0 0 0 0 0 0 0 0 0 0 0 0 0 0 0 0 0 0 0 0 0 0 0 0 0 0 0 0 0 0 0 0 0 0 0 0 0 0 0 0 0 0 0 0 0 0 0 0 0 0 0 0 0 0 0 0 0 0 0 0 0 0 0 0 0 0 0 0 0 0 0 0 0 0 0 0 0 0 0 0 0 0 0 0 0 0 0 0 0 0 0 0 0 0 0 0 0 0 0 0 0 0 0 0 0 0 0 0 0 0 0 0 0 0 0 0 0 0 0 0 0 0 0 0 0 0 0 0 0 0 0 0 0 0 0 0 0 0 0 0 0 0 0 0 0 0 0 0 0 0 0 0 0 0 0 0 0 0 0 0 0 0 0 0 0 0 0 0 0 0 0 0 0 0 0 0 0 0 0 0 0 0 0 0 0 0 0 0 0 0 
CalcFockMatrix - entering subroutine
Initializing the integral list                    ... done
Getting Cholesky decomposed V-matrix              ... done
Scaling the total density                         ... done
Batch   0: i=  0.. 79
  Making batch data          ... done
  Making IBUFF               ... done
  Entering conventional      ... 
  Getting memory             ... done
  AO-Batch   0: k=   0-1902
  Reading                    ... done
  Coulomb                    ... done
  Exchange                   ... done
  Conventional AO part done
  Entering exchange          ... done
Getting  inverse V matrix                         ... Solving linear equations                          ... done
Making TSCREEN                                    ... done
Coulomb conventional section                      ... done
Updating the Fock matrix                          ... done
Unscaling the density                             ... done

Timings:
Total time                             ...    43.912 sec

Integral generation                    ...     0.000 sec
I/O and exchange intermediate          ...    21.310 sec
Exchange Completion                    ...    19.949 sec
Coulomb equation solution              ...     0.003 sec
Coulomb second pass                    ...     2.157 sec

CalcFockMatrix - time for F was   43.921sec
CalcFockMatrix - leaving subroutine
SCF-RHF/UHF-DIIS - Time for F =   43.921
CalcEnergy - Entering Routine
CalcEnergy - Individual Terms:
E(Nuc)       =   1547.155184059
E(el)        =  -2657.695454574
E(SCF)       =  -1110.540270515
<VCOSMO>     =      0.000000000
E(diel)      =      0.000000000
ESCF-<VCOSMO>=  -1110.540270515
 +E(diel)    =  -1110.540270515
<VDFET>      =      0.000000000
SCF-RHF/UHF-DIIS - Time for E =    0.001
SCF-RHF/UHF-DIIS - Time for D =    0.146
CalcDensityMatrix - entering subroutine
CalcDensityMatrix - finished initialization
CalcDensityMatrix - entering BuildDensity
CalcDensityMatrix - HOMO[0] = 79
CalcDensityMatrix - leaving BuildDensity
CalcDensityMatrix - entering damping
CalcDensityMatrix - leaving damping
CalcDensityMatrix - entering RMS density
CalcDensityMatrix - leaving RMS density
CalcDensityMatrix - Total time =    0.018
CalcDensityMatrix - leaving subroutine
SCF-RHF/UHF-DIIS - Time for Dens =    0.018
                          ***Energy convergence achieved***
                           ***RMSP convergence achieved***

                         ----------------------------
                         !        ITERATION     9   !
                         ----------------------------
   Total Energy        :   -1110.540270514957 Eh
   Energy Change       :      -0.000000487345 Eh
   MAX-DP              :       0.000067333519
   RMS-DP              :       0.000000877579
   Actual Damping      :       0.0000

SCF-RHF/UHF-DIIS - Total time for iteration =   44.105

op=0 irreps int iter  10: 0 0 0 0 0 0 0 0 0 0 0 0 0 0 0 0 0 0 0 0 0 0 0 0 0 0 0 0 0 0 0 0 0 0 0 0 0 0 0 0 0 0 0 0 0 0 0 0 0 0 0 0 0 0 0 0 0 0 0 0 0 0 0 0 0 0 0 0 0 0 0 0 0 0 0 0 0 0 0 0 0 0 0 0 0 0 0 0 0 0 0 0 0 0 0 0 0 0 0 0 0 0 0 0 0 0 0 0 0 0 0 0 0 0 0 0 0 0 0 0 0 0 0 0 0 0 0 0 0 0 0 0 0 0 0 0 0 0 0 0 0 0 0 0 0 0 0 0 0 0 0 0 0 0 0 0 0 0 0 0 0 0 0 0 0 0 0 0 0 0 0 0 0 0 0 0 0 0 0 0 0 0 0 0 0 0 0 0 0 0 0 0 0 0 0 0 0 0 0 0 0 0 0 0 0 0 0 0 0 0 0 0 0 0 0 0 0 0 0 0 0 0 0 0 0 0 0 0 0 0 0 0 0 0 0 0 0 0 0 0 0 0 0 0 0 0 0 0 0 0 0 0 0 0 0 0 0 0 0 0 0 0 0 0 0 0 0 0 0 0 0 0 0 0 0 0 0 0 0 0 0 0 0 0 0 0 0 0 0 0 0 0 0 0 0 0 0 0 0 0 0 0 0 0 0 0 0 0 0 0 0 0 0 0 0 0 0 0 0 0 0 0 0 0 0 0 0 0 0 0 0 0 0 0 0 0 0 0 0 0 0 0 0 0 0 0 0 0 0 0 0 0 0 0 0 0 0 0 0 0 0 0 0 0 0 0 0 0 0 0 0 0 0 0 0 0 0 0 0 0 0 0 0 0 0 0 0 0 0 0 0 0 0 0 0 0 0 0 0 0 0 0 0 0 0 0 0 0 0 0 0 0 0 0 0 0 0 0 0 0 0 0 0 0 0 0 0 0 0 0 0 0 0 0 0 0 0 0 0 0 0 0 0 0 0 0 0 0 0 0 0 0 0 0 0 0 0 0 0 0 0 0 0 0 0 0 0 0 0 0 0 0 0 0 0 0 0 0 0 0 0 0 0 0 0 0 0 0 0 0 0 0 0 0 0 0 0 0 0 0 0 0 0 0 0 0 0 0 0 0 0 0 0 0 0 0 0 0 0 0 0 0 0 0 0 0 0 0 0 0 0 0 0 0 0 0 0 0 0 0 0 0 0 0 0 0 0 0 0 0 0 0 0 0 0 0 0 0 0 0 0 0 0 0 0 0 0 0 0 0 0 0 0 0 0 0 0 0 0 0 0 0 0 0 0 0 0 0 0 0 0 0 0 0 0 0 0 0 0 0 0 0 0 0 0 0 0 0 0 0 0 0 0 0 0 0 0 0 0 0 0 0 0 0 0 0 0 0 0 0 0 0 0 0 0 0 0 0 0 0 0 0 0 0 0 0 0 0 0 0 0 0 0 0 0 0 0 0 0 0 0 0 0 0 0 0 0 0 0 0 0 0 0 0 0 0 0 0 0 0 0 0 0 0 0 0 0 0 0 0 0 0 0 0 0 0 0 0 0 0 0 0 0 0 0 0 0 0 0 0 0 0 0 0 0 0 0 0 0 0 0 0 0 0 0 0 0 0 0 0 0 0 0 0 0 0 0 0 0 0 0 0 0 0 0 0 0 0 0 0 0 0 0 
CalcFockMatrix - entering subroutine
Initializing the integral list                    ... done
Getting Cholesky decomposed V-matrix              ... done
Scaling the total density                         ... done
Batch   0: i=  0.. 79
  Making batch data          ... done
  Making IBUFF               ... done
  Entering conventional      ... 
  Getting memory             ... done
  AO-Batch   0: k=   0-1902
  Reading                    ... done
  Coulomb                    ... done
  Exchange                   ... done
  Conventional AO part done
  Entering exchange          ... done
Getting  inverse V matrix                         ... Solving linear equations                          ... done
Making TSCREEN                                    ... done
Coulomb conventional section                      ... done
Updating the Fock matrix                          ... done
Unscaling the density                             ... done

Timings:
Total time                             ...    43.922 sec

Integral generation                    ...     0.000 sec
I/O and exchange intermediate          ...    21.302 sec
Exchange Completion                    ...    19.965 sec
Coulomb equation solution              ...     0.003 sec
Coulomb second pass                    ...     2.158 sec

CalcFockMatrix - time for F was   43.932sec
CalcFockMatrix - leaving subroutine
SCF-RHF/UHF-DIIS - Time for F =   43.932
CalcEnergy - Entering Routine
CalcEnergy - Individual Terms:
E(Nuc)       =   1547.155184059
E(el)        =  -2657.695454630
E(SCF)       =  -1110.540270571
<VCOSMO>     =      0.000000000
E(diel)      =      0.000000000
ESCF-<VCOSMO>=  -1110.540270571
 +E(diel)    =  -1110.540270571
<VDFET>      =      0.000000000
SCF-RHF/UHF-DIIS - Time for E =    0.001
SCF-RHF/UHF-DIIS - Time for D =    0.146
CalcDensityMatrix - entering subroutine
CalcDensityMatrix - finished initialization
CalcDensityMatrix - entering BuildDensity
CalcDensityMatrix - HOMO[0] = 79
CalcDensityMatrix - leaving BuildDensity
CalcDensityMatrix - entering damping
CalcDensityMatrix - leaving damping
CalcDensityMatrix - entering RMS density
CalcDensityMatrix - leaving RMS density
CalcDensityMatrix - Total time =    0.018
CalcDensityMatrix - leaving subroutine
SCF-RHF/UHF-DIIS - Time for Dens =    0.018

            ***Energy convergence in two consecutive cycles with***
                    ***'reasonable' density convergence***
                       *** signaling convergence ***

                    *** KDIIS BlockDiag (493.092 sec) ***

               *****************************************************
               *                     SUCCESS                       *
               *           SCF CONVERGED AFTER  10 CYCLES          *
               *****************************************************

SCF-RHF/UHF-DIIS - Time for rest =    0.191
SCF-RHF/UHF-DIIS - Leaving subroutine

----------------
TOTAL SCF ENERGY
----------------

Total Energy       :        -1110.54027057 Eh          -30219.33708 eV

Components:
Nuclear Repulsion  :         1547.15518406 Eh           42100.23289 eV
Electronic Energy  :        -2657.69545463 Eh          -72319.56998 eV
One Electron Energy:        -4594.26602819 Eh         -125016.33433 eV
Two Electron Energy:         1936.57057356 Eh           52696.76436 eV

Virial components:
Potential Energy   :        -2220.10584404 Eh          -60412.15131 eV
Kinetic Energy     :         1109.56557347 Eh           30192.81423 eV
Virial Ratio       :            2.00087845


---------------
SCF CONVERGENCE
---------------

  Last Energy change         ...   -5.6341e-08  Tolerance :   1.0000e-06
  Last MAX-Density change    ...    2.3851e-05  Tolerance :   1.0000e-05
  Last RMS-Density change    ...    3.3140e-07  Tolerance :   1.0000e-06

[...]
      dz2     :     0.268512  d :     0.932179
      dxz     :     0.223294
      dyz     :     0.105123
      dx2y2   :     0.140560
      dxy     :     0.194689
      f0      :     0.031427  f :     0.142122
      f+1     :     0.028075
      f-1     :     0.011402
      f+2     :     0.024485
      f-2     :     0.020768
      f+3     :     0.010913
      f-3     :     0.015052
  3 O s       :     3.395299  s :     3.395299
      pz      :     1.556064  p :     4.532266
      px      :     1.581651
      py      :     1.394551
      dz2     :     0.018506  d :     0.066495
      dxz     :     0.025455
      dyz     :     0.007640
      dx2y2   :     0.008903
      dxy     :     0.005991
      f0      :     0.001053  f :     0.005679
      f+1     :     0.001883
      f-1     :     0.000236
      f+2     :     0.001257
      f-2     :     0.000721
      f+3     :     0.000304
      f-3     :     0.000226
  4 H s       :     0.820870  s :     0.820870
      pz      :     0.020945  p :     0.056948
      px      :     0.023195
      py      :     0.012808
  5 H s       :     0.821251  s :     0.821251
      pz      :     0.011967  p :     0.057402
      px      :     0.010814
      py      :     0.034621
  6 H s       :     0.728234  s :     0.728234
      pz      :     0.045485  p :     0.113617
      px      :     0.033141
      py      :     0.034991
  7 H s       :     0.745284  s :     0.745284
      pz      :     0.045246  p :     0.111498
      px      :     0.028070
      py      :     0.038182
  8 N s       :     2.910410  s :     2.910410
      pz      :     1.131938  p :     3.752916
      px      :     1.157117
      py      :     1.463861
      dz2     :     0.050064  d :     0.217077
      dxz     :     0.090902
      dyz     :     0.025615
      dx2y2   :     0.030377
      dxy     :     0.020119
      f0      :     0.003174  f :     0.014761
      f+1     :     0.002369
      f-1     :     0.001885
      f+2     :     0.003060
      f-2     :     0.000658
      f+3     :     0.002181
      f-3     :     0.001434
  9 C s       :     2.766675  s :     2.766675
      pz      :     0.919026  p :     2.931232
      px      :     0.970674
      py      :     1.041532
      dz2     :     0.090755  d :     0.453489
      dxz     :     0.092865
      dyz     :     0.146861
      dx2y2   :     0.080299
      dxy     :     0.042709
      f0      :     0.012582  f :     0.055680
      f+1     :     0.011253
      f-1     :     0.008080
      f+2     :     0.006451
      f-2     :     0.008844
      f+3     :     0.004420
      f-3     :     0.004050
 10 C s       :     2.731933  s :     2.731933
      pz      :     0.954900  p :     2.584161
      px      :     0.983374
      py      :     0.645887
      dz2     :     0.276705  d :     0.933694
      dxz     :     0.258273
      dyz     :     0.224085
      dx2y2   :     0.092507
      dxy     :     0.082124
      f0      :     0.043416  f :     0.142086
      f+1     :     0.022913
      f-1     :     0.016768
      f+2     :     0.023791
      f-2     :     0.025983
      f+3     :     0.004100
      f-3     :     0.005115
 11 O s       :     3.395282  s :     3.395282
      pz      :     1.518760  p :     4.532765
      px      :     1.618465
      py      :     1.395541
      dz2     :     0.024560  d :     0.066666
      dxz     :     0.025091
      dyz     :     0.009942
      dx2y2   :     0.004272
      dxy     :     0.002802
      f0      :     0.001813  f :     0.005666
      f+1     :     0.001960
      f-1     :     0.000594
      f+2     :     0.000805
      f-2     :     0.000395
      f+3     :     0.000070
      f-3     :     0.000029
 12 H s       :     0.801069  s :     0.801069
      pz      :     0.018648  p :     0.058864
      px      :     0.014071
      py      :     0.026145
 13 H s       :     0.798195  s :     0.798195
      pz      :     0.014446  p :     0.059147
      px      :     0.012781
      py      :     0.031920
 14 H s       :     0.689583  s :     0.689583
      pz      :     0.041650  p :     0.114631
      px      :     0.037211
      py      :     0.035769
 15 N s       :     2.908145  s :     2.908145
      pz      :     1.150121  p :     3.751653
      px      :     1.136117
      py      :     1.465414
      dz2     :     0.055573  d :     0.216136
      dxz     :     0.085451
      dyz     :     0.012461
      dx2y2   :     0.029938
      dxy     :     0.032713
      f0      :     0.003852  f :     0.014810
      f+1     :     0.002534
      f-1     :     0.001176
      f+2     :     0.002797
      f-2     :     0.000552
      f+3     :     0.001710
      f-3     :     0.002189
 16 C s       :     2.766950  s :     2.766950
      pz      :     1.009207  p :     2.930031
      px      :     0.878914
      py      :     1.041910
      dz2     :     0.084939  d :     0.452428
      dxz     :     0.092440
      dyz     :     0.057812
      dx2y2   :     0.081176
      dxy     :     0.136061
      f0      :     0.010162  f :     0.055622
      f+1     :     0.009359
      f-1     :     0.003235
      f+2     :     0.007428
      f-2     :     0.004041
      f+3     :     0.008214
      f-3     :     0.013184
 17 C s       :     2.731428  s :     2.731428
      pz      :     0.998879  p :     2.584500
      px      :     0.937147
      py      :     0.648473
      dz2     :     0.267477  d :     0.934662
      dxz     :     0.221030
      dyz     :     0.108407
      dx2y2   :     0.140162
      dxy     :     0.197586
      f0      :     0.029893  f :     0.142128
      f+1     :     0.029272
      f-1     :     0.012006
      f+2     :     0.024131
      f-2     :     0.020507
      f+3     :     0.010887
      f-3     :     0.015433
 18 O s       :     3.394970  s :     3.394970
      pz      :     1.560612  p :     4.528185
      px      :     1.574515
      py      :     1.393057
      dz2     :     0.018238  d :     0.066894
      dxz     :     0.026039
      dyz     :     0.007295
      dx2y2   :     0.009426
      dxy     :     0.005896
      f0      :     0.001034  f :     0.005684
      f+1     :     0.001919
      f-1     :     0.000177
      f+2     :     0.001319
      f-2     :     0.000678
      f+3     :     0.000329
      f-3     :     0.000227
 19 H s       :     0.800478  s :     0.800478
      pz      :     0.016998  p :     0.058961
      px      :     0.013206
      py      :     0.028757
 20 H s       :     0.797974  s :     0.797974
      pz      :     0.017882  p :     0.059179
      px      :     0.011696
      py      :     0.029601
 21 H s       :     0.685586  s :     0.685586
      pz      :     0.053918  p :     0.114077
      px      :     0.024905
      py      :     0.035254
 22 N s       :     2.907984  s :     2.907984
      pz      :     1.132200  p :     3.751418
      px      :     1.157156
      py      :     1.462062
      dz2     :     0.049874  d :     0.216027
      dxz     :     0.089642
      dyz     :     0.026029
      dx2y2   :     0.030389
      dxy     :     0.020094
      f0      :     0.003168  f :     0.014818
      f+1     :     0.002401
      f-1     :     0.001924
      f+2     :     0.002980
      f-2     :     0.000696
      f+3     :     0.002214
      f-3     :     0.001434
 23 C s       :     2.766713  s :     2.766713
      pz      :     0.915368  p :     2.929891
      px      :     0.972212
      py      :     1.042311
      dz2     :     0.091583  d :     0.451394
      dxz     :     0.093415
      dyz     :     0.144097
      dx2y2   :     0.078119
      dxy     :     0.044179
      f0      :     0.012621  f :     0.055618
      f+1     :     0.011156
      f-1     :     0.008528
      f+2     :     0.006024
      f-2     :     0.008879
      f+3     :     0.004132
      f-3     :     0.004278
 24 C s       :     2.731652  s :     2.731652
      pz      :     0.949665  p :     2.582555
      px      :     0.976535
      py      :     0.656354
      dz2     :     0.277828  d :     0.932984
      dxz     :     0.255036
      dyz     :     0.218456
      dx2y2   :     0.093894
      dxy     :     0.087771
      f0      :     0.042556  f :     0.142261
      f+1     :     0.022617
      f-1     :     0.016921
      f+2     :     0.024435
      f-2     :     0.025755
      f+3     :     0.004631
      f-3     :     0.005347
 25 O s       :     3.394470  s :     3.394470
      pz      :     1.518045  p :     4.526006
      px      :     1.613262
      py      :     1.394699
      dz2     :     0.023942  d :     0.067017
      dxz     :     0.024239
      dyz     :     0.011097
      dx2y2   :     0.004254
      dxy     :     0.003484
      f0      :     0.001734  f :     0.005695
      f+1     :     0.001830
      f-1     :     0.000716
      f+2     :     0.000760
      f-2     :     0.000535
      f+3     :     0.000060
      f-3     :     0.000060
 26 H s       :     0.799160  s :     0.799160
      pz      :     0.014269  p :     0.059035
      px      :     0.011940
      py      :     0.032826
 27 H s       :     0.795732  s :     0.795732
      pz      :     0.018640  p :     0.059507
      px      :     0.015641
      py      :     0.025226
 28 H s       :     0.685443  s :     0.685443
      pz      :     0.040818  p :     0.114264
      px      :     0.037632
      py      :     0.035814
 29 N s       :     2.908440  s :     2.908440
      pz      :     1.154148  p :     3.752345
      px      :     1.141165
      py      :     1.457032
      dz2     :     0.054623  d :     0.214902
      dxz     :     0.082086
      dyz     :     0.015064
      dx2y2   :     0.030925
      dxy     :     0.032205
      f0      :     0.003744  f :     0.014806
      f+1     :     0.002430
      f-1     :     0.001335
      f+2     :     0.002599
      f-2     :     0.000767
      f+3     :     0.001846
      f-3     :     0.002085
 30 C s       :     2.771261  s :     2.771261
      pz      :     1.014839  p :     2.939878
      px      :     0.887422
      py      :     1.037618
      dz2     :     0.084532  d :     0.455518
      dxz     :     0.098962
      dyz     :     0.052506
      dx2y2   :     0.092644
      dxy     :     0.126874
      f0      :     0.009664  f :     0.055584
      f+1     :     0.009241
      f-1     :     0.003871
      f+2     :     0.006793
      f-2     :     0.004570
      f+3     :     0.008598
      f-3     :     0.012847
 31 C s       :     2.753292  s :     2.753292
      pz      :     1.017067  p :     2.545156
      px      :     0.868848
      py      :     0.659241
      dz2     :     0.268401  d :     0.978013
      dxz     :     0.249279
      dyz     :     0.115697
      dx2y2   :     0.167227
      dxy     :     0.177408
      f0      :     0.037794  f :     0.165286
      f+1     :     0.027313
      f-1     :     0.013877
      f+2     :     0.031457
      f-2     :     0.020012
      f+3     :     0.015370
      f-3     :     0.019463
 32 O s       :     3.392026  s :     3.392026
      pz      :     1.550473  p :     4.461971
      px      :     1.574134
      py      :     1.337363
      dz2     :     0.018604  d :     0.067709
      dxz     :     0.024544
      dyz     :     0.010444
      dx2y2   :     0.007723
      dxy     :     0.006394
      f0      :     0.001072  f :     0.006039
      f+1     :     0.001874
      f-1     :     0.000442
      f+2     :     0.001188
      f-2     :     0.000955
      f+3     :     0.000244
      f-3     :     0.000265
 33 H s       :     0.797552  s :     0.797552
      pz      :     0.015254  p :     0.059088
      px      :     0.009978
      py      :     0.033857
 34 H s       :     0.795851  s :     0.795851
      pz      :     0.020528  p :     0.059277
      px      :     0.014608
      py      :     0.024140
 35 H s       :     0.685069  s :     0.685069
      pz      :     0.052571  p :     0.113369
      px      :     0.024666
      py      :     0.036131
 36 O s       :     3.316235  s :     3.316235
      pz      :     1.486475  p :     4.515050
      px      :     1.369904
      py      :     1.658671
      dz2     :     0.014319  d :     0.071167
      dxz     :     0.026956
      dyz     :     0.003364
      dx2y2   :     0.016877
      dxy     :     0.009652
      f0      :     0.000653  f :     0.004737
      f+1     :     0.001290
      f-1     :     0.000217
      f+2     :     0.000692
      f-2     :     0.000162
      f+3     :     0.000971
      f-3     :     0.000752
 37 H s       :     0.645428  s :     0.645428
      pz      :     0.074568  p :     0.153193
      px      :     0.035772
      py      :     0.042852


                      *****************************
                      * MAYER POPULATION ANALYSIS *
                      *****************************

  NA   - Mulliken gross atomic population
  ZA   - Total nuclear charge
  QA   - Mulliken gross atomic charge
  VA   - Mayer's total valence
  BVA  - Mayer's bonded valence
  FA   - Mayer's free valence

  ATOM       NA         ZA         QA         VA         BVA        FA
  0 N      7.5664     7.0000    -0.5664     2.8404     2.8404    -0.0000
  1 C      6.0500     6.0000    -0.0500     3.9407     3.9407    -0.0000
  2 C      5.5218     6.0000     0.4782     4.0643     4.0643    -0.0000
  3 O      8.5546     8.0000    -0.5546     1.9241     1.9241    -0.0000
  4 H      0.9112     1.0000     0.0888     0.9758     0.9758    -0.0000
  5 H      0.9044     1.0000     0.0956     0.9592     0.9592    -0.0000
  6 H      0.7452     1.0000     0.2548     0.9483     0.9483    -0.0000
  7 H      0.7857     1.0000     0.2143     0.9487     0.9487     0.0000
  8 N      7.4092     7.0000    -0.4092     3.0112     3.0112     0.0000
  9 C      6.0652     6.0000    -0.0652     3.8434     3.8434    -0.0000
 10 C      5.5291     6.0000     0.4709     4.0915     4.0915     0.0000
 11 O      8.5549     8.0000    -0.5549     1.9059     1.9059     0.0000
 12 H      0.8691     1.0000     0.1309     0.9747     0.9747    -0.0000
 13 H      0.8642     1.0000     0.1358     0.9733     0.9733    -0.0000
 14 H      0.7208     1.0000     0.2792     0.9434     0.9434    -0.0000
 15 N      7.4007     7.0000    -0.4007     3.0156     3.0156     0.0000
 16 C      6.0730     6.0000    -0.0730     3.8422     3.8422     0.0000
 17 C      5.5319     6.0000     0.4681     4.0996     4.0996    -0.0000
 18 O      8.5492     8.0000    -0.5492     1.9114     1.9114     0.0000
 19 H      0.8661     1.0000     0.1339     0.9740     0.9740     0.0000
 20 H      0.8629     1.0000     0.1371     0.9725     0.9725     0.0000
 21 H      0.7164     1.0000     0.2836     0.9414     0.9414     0.0000
 22 N      7.4009     7.0000    -0.4009     3.0158     3.0158    -0.0000
 23 C      6.0744     6.0000    -0.0744     3.8357     3.8357    -0.0000
 24 C      5.5286     6.0000     0.4714     4.0988     4.0988     0.0000
 25 O      8.5476     8.0000    -0.5476     1.9112     1.9112     0.0000
 26 H      0.8638     1.0000     0.1362     0.9723     0.9723     0.0000
 27 H      0.8552     1.0000     0.1448     0.9727     0.9727     0.0000
 28 H      0.7161     1.0000     0.2839     0.9409     0.9409     0.0000
 29 N      7.4128     7.0000    -0.4128     3.0116     3.0116    -0.0000
 30 C      6.1023     6.0000    -0.1023     3.8612     3.8612     0.0000
 31 C      5.4752     6.0000     0.5248     4.1630     4.1630     0.0000
 32 O      8.4462     8.0000    -0.4462     2.0145     2.0145    -0.0000
 33 H      0.8593     1.0000     0.1407     0.9671     0.9671    -0.0000
 34 H      0.8557     1.0000     0.1443     0.9663     0.9663     0.0000
 35 H      0.7137     1.0000     0.2863     0.9383     0.9383    -0.0000
 36 O      8.4522     8.0000    -0.4522     2.0133     2.0133    -0.0000
 37 H      0.6438     1.0000     0.3562     0.8873     0.8873    -0.0000

  Mayer bond orders larger than 0.1
B(  0-N ,  1-C ) :   1.0157 B(  0-N ,  6-H ) :   0.9176 B(  0-N ,  7-H ) :   0.9429 
B(  1-C ,  2-C ) :   0.9698 B(  1-C ,  4-H ) :   0.9930 B(  1-C ,  5-H ) :   0.9538 
B(  2-C ,  3-O ) :   1.8573 B(  2-C ,  8-N ) :   1.2336 B(  8-N ,  9-C ) :   0.9134 
B(  8-N , 14-H ) :   0.8898 B(  9-C , 10-C ) :   0.9702 B(  9-C , 12-H ) :   0.9866 
B(  9-C , 13-H ) :   0.9726 B( 10-C , 11-O ) :   1.8279 B( 10-C , 15-N ) :   1.2636 
B( 15-N , 16-C ) :   0.9106 B( 15-N , 21-H ) :   0.8896 B( 16-C , 17-C ) :   0.9707 
B( 16-C , 19-H ) :   0.9865 B( 16-C , 20-H ) :   0.9714 B( 17-C , 18-O ) :   1.8339 
B( 17-C , 22-N ) :   1.2640 B( 22-N , 23-C ) :   0.9080 B( 22-N , 28-H ) :   0.8895 
B( 23-C , 24-C ) :   0.9728 B( 23-C , 26-H ) :   0.9767 B( 23-C , 27-H ) :   0.9782 
B( 24-C , 25-O ) :   1.8338 B( 24-C , 29-N ) :   1.2561 B( 29-N , 30-C ) :   0.9073 
B( 29-N , 35-H ) :   0.8914 B( 30-C , 31-C ) :   0.9962 B( 30-C , 33-H ) :   0.9701 
B( 30-C , 34-H ) :   0.9666 B( 31-C , 32-O ) :   1.9775 B( 31-C , 36-O ) :   1.1668 
B( 36-O , 37-H ) :   0.8617 

-------
TIMINGS
-------

Total SCF time: 0 days 0 hours 8 min 13 sec 

Total time                  ....     493.542 sec
Sum of individual times     ....     492.592 sec  ( 99.8%)

Fock matrix formation       ....     483.536 sec  ( 98.0%)
Diagonalization             ....       1.593 sec  (  0.3%)
Density matrix formation    ....       0.197 sec  (  0.0%)
Population analysis         ....       0.149 sec  (  0.0%)
Initial guess               ....       3.686 sec  (  0.7%)
Orbital Transformation      ....       0.000 sec  (  0.0%)
Orbital Orthonormalization  ....       0.000 sec  (  0.0%)
DIIS solution               ....       0.000 sec  (  0.0%)

-------------------------   --------------------
FINAL SINGLE POINT ENERGY     -1110.540270571297
-------------------------   --------------------


                            ***************************************
                            *     ORCA property calculations      *
                            ***************************************

                                    ---------------------
                                    Active property flags
                                    ---------------------
   (+) Dipole Moment


------------------------------------------------------------------------------
                       ORCA ELECTRIC PROPERTIES CALCULATION
------------------------------------------------------------------------------

Dipole Moment Calculation                       ... on
Quadrupole Moment Calculation                   ... off
Polarizability Calculation                      ... off
GBWName                                         ... orca.gbw
Electron density file                           ... orca.scfp.tmp
The origin for moment calculation is the CENTER OF MASS  = ( 0.656694, -0.967635  9.695971)

-------------
DIPOLE MOMENT
-------------
                                X             Y             Z
Electronic contribution:     13.78505       0.20357      11.76518
Nuclear contribution   :    -11.28389       0.15873     -11.93301
                        -----------------------------------------
Total Dipole Moment    :      2.50116       0.36230      -0.16783
                        -----------------------------------------
Magnitude (a.u.)       :      2.53283
Magnitude (Debye)      :      6.43794



--------------------
Rotational spectrum 
--------------------
 
Rotational constants in cm-1:     0.061110     0.001840     0.001795 
Rotational constants in MHz :  1832.029136    55.173951    53.814289 

 Dipole components along the rotational axes: 
x,y,z [a.u.] :    -1.964290    -1.536665    -0.442104 
x,y,z [Debye]:    -4.992829    -3.905892    -1.123739 

 

Timings for individual modules:

Sum of individual times         ...      508.025 sec (=   8.467 min)
GTO integral calculation        ...       14.456 sec (=   0.241 min)   2.8 %
SCF iterations                  ...      493.569 sec (=   8.226 min)  97.2 %
                             ****ORCA TERMINATED NORMALLY****
TOTAL RUN TIME: 0 days 0 hours 8 minutes 28 seconds 690 msec
